<?xml version="1.0" encoding="UTF-8"?>

<!-- generated on 2024-05-29 22:16:58 by Eclipse SUMO sumo Version 1.14.1
<configuration xmlns:xsi="http://www.w3.org/2001/XMLSchema-instance" xsi:noNamespaceSchemaLocation="http://sumo.dlr.de/xsd/sumoConfiguration.xsd">

    <input>
        <net-file value="osm.net.xml"/>
        <route-files value="osm.passenger.trips.xml"/>
    </input>

    <output>
        <tripinfo-output value="tripinfo.xml"/>
    </output>

    <traci_server>
        <remote-port value="62705"/>
    </traci_server>

    <gui_only>
        <gui-settings-file value="osm.view.xml"/>
    </gui_only>

</configuration>
-->

<tripinfos xmlns:xsi="http://www.w3.org/2001/XMLSchema-instance" xsi:noNamespaceSchemaLocation="http://sumo.dlr.de/xsd/tripinfo_file.xsd">
    <tripinfo id="veh0" depart="0.00" departLane="-E4_0" departPos="5.10" departSpeed="0.00" departDelay="0.00" arrival="50.00" arrivalLane="-E1_0" arrivalPos="289.60" arrivalSpeed="13.97" duration="50.00" routeLength="597.32" waitingTime="0.00" waitingCount="0" stopTime="0.00" timeLoss="8.39" rerouteNo="0" devices="tripinfo_veh0 routing_veh0" vType="veh_passenger" speedFactor="1.06" vaporized=""/>
    <tripinfo id="veh2" depart="12.00" departLane="E5_0" departPos="5.10" departSpeed="0.00" departDelay="0.00" arrival="60.00" arrivalLane="-E1_0" arrivalPos="289.60" arrivalSpeed="13.94" duration="48.00" routeLength="594.90" waitingTime="0.00" waitingCount="0" stopTime="0.00" timeLoss="4.91" rerouteNo="0" devices="tripinfo_veh2 routing_veh2" vType="veh_passenger" speedFactor="1.01" vaporized=""/>
    <tripinfo id="veh4" depart="24.00" departLane="-E3_0" departPos="5.10" departSpeed="0.00" departDelay="0.00" arrival="73.00" arrivalLane="-E1_0" arrivalPos="289.60" arrivalSpeed="13.49" duration="49.00" routeLength="583.13" waitingTime="0.00" waitingCount="0" stopTime="0.00" timeLoss="6.95" rerouteNo="0" devices="tripinfo_veh4 routing_veh4" vType="veh_passenger" speedFactor="1.03" vaporized=""/>
    <tripinfo id="veh6" depart="36.00" departLane="E5_0" departPos="5.10" departSpeed="0.00" departDelay="0.00" arrival="82.00" arrivalLane="-E1_0" arrivalPos="289.60" arrivalSpeed="14.20" duration="46.00" routeLength="594.90" waitingTime="0.00" waitingCount="0" stopTime="0.00" timeLoss="4.97" rerouteNo="0" devices="tripinfo_veh6 routing_veh6" vType="veh_passenger" speedFactor="1.05" vaporized=""/>
    <tripinfo id="veh7" depart="42.00" departLane="E5_0" departPos="5.10" departSpeed="0.00" departDelay="0.00" arrival="104.00" arrivalLane="E3_0" arrivalPos="289.60" arrivalSpeed="11.35" duration="62.00" routeLength="583.13" waitingTime="1.00" waitingCount="1" stopTime="0.00" timeLoss="13.68" rerouteNo="0" devices="tripinfo_veh7 routing_veh7" vType="veh_passenger" speedFactor="0.89" vaporized=""/>
    <tripinfo id="veh10" depart="60.00" departLane="E5_0" departPos="5.10" departSpeed="0.00" departDelay="0.00" arrival="106.00" arrivalLane="E3_0" arrivalPos="289.60" arrivalSpeed="14.75" duration="46.00" routeLength="583.13" waitingTime="0.00" waitingCount="0" stopTime="0.00" timeLoss="6.41" rerouteNo="0" devices="tripinfo_veh10 routing_veh10" vType="veh_passenger" speedFactor="1.09" vaporized=""/>
    <tripinfo id="veh11" depart="66.00" departLane="E5_0" departPos="5.10" departSpeed="0.00" departDelay="0.00" arrival="121.00" arrivalLane="E3_0" arrivalPos="289.60" arrivalSpeed="13.64" duration="55.00" routeLength="583.13" waitingTime="4.00" waitingCount="1" stopTime="0.00" timeLoss="12.63" rerouteNo="0" devices="tripinfo_veh11 routing_veh11" vType="veh_passenger" speedFactor="1.03" vaporized=""/>
    <tripinfo id="veh9" depart="54.00" departLane="-E3_0" departPos="5.10" departSpeed="0.00" departDelay="0.00" arrival="130.00" arrivalLane="-E1_0" arrivalPos="289.60" arrivalSpeed="11.50" duration="76.00" routeLength="583.13" waitingTime="16.00" waitingCount="1" stopTime="0.00" timeLoss="25.48" rerouteNo="0" devices="tripinfo_veh9 routing_veh9" vType="veh_passenger" speedFactor="0.86" vaporized=""/>
    <tripinfo id="veh12" depart="72.00" departLane="E1_0" departPos="5.10" departSpeed="0.00" departDelay="0.00" arrival="140.00" arrivalLane="E4_0" arrivalPos="289.60" arrivalSpeed="14.53" duration="68.00" routeLength="583.13" waitingTime="16.00" waitingCount="1" stopTime="0.00" timeLoss="27.03" rerouteNo="0" devices="tripinfo_veh12 routing_veh12" vType="veh_passenger" speedFactor="1.05" vaporized=""/>
    <tripinfo id="veh1" depart="6.00" departLane="E1_0" departPos="5.10" departSpeed="0.00" departDelay="0.00" arrival="143.00" arrivalLane="E3_0" arrivalPos="289.60" arrivalSpeed="12.48" duration="137.00" routeLength="592.43" waitingTime="81.00" waitingCount="1" stopTime="0.00" timeLoss="90.42" rerouteNo="0" devices="tripinfo_veh1 routing_veh1" vType="veh_passenger" speedFactor="0.94" vaporized=""/>
    <tripinfo id="veh14" depart="84.00" departLane="E5_0" departPos="5.10" departSpeed="0.00" departDelay="0.00" arrival="146.00" arrivalLane="E3_0" arrivalPos="289.60" arrivalSpeed="12.48" duration="62.00" routeLength="583.13" waitingTime="10.00" waitingCount="1" stopTime="0.00" timeLoss="18.76" rerouteNo="0" devices="tripinfo_veh14 routing_veh14" vType="veh_passenger" speedFactor="0.99" vaporized=""/>
    <tripinfo id="veh5" depart="30.00" departLane="E1_0" departPos="5.10" departSpeed="0.00" departDelay="0.00" arrival="149.00" arrivalLane="E3_0" arrivalPos="289.60" arrivalSpeed="10.98" duration="119.00" routeLength="592.43" waitingTime="55.00" waitingCount="1" stopTime="0.00" timeLoss="66.39" rerouteNo="0" devices="tripinfo_veh5 routing_veh5" vType="veh_passenger" speedFactor="0.83" vaporized=""/>
    <tripinfo id="veh3" depart="18.00" departLane="-E4_0" departPos="5.10" departSpeed="0.00" departDelay="0.00" arrival="150.00" arrivalLane="-E1_0" arrivalPos="289.60" arrivalSpeed="14.03" duration="132.00" routeLength="597.32" waitingTime="80.00" waitingCount="1" stopTime="0.00" timeLoss="91.52" rerouteNo="0" devices="tripinfo_veh3 routing_veh3" vType="veh_passenger" speedFactor="1.08" vaporized=""/>
    <tripinfo id="veh15" depart="90.00" departLane="E5_0" departPos="5.10" departSpeed="0.00" departDelay="0.00" arrival="151.00" arrivalLane="E3_0" arrivalPos="289.60" arrivalSpeed="11.93" duration="61.00" routeLength="583.13" waitingTime="4.00" waitingCount="1" stopTime="0.00" timeLoss="14.28" rerouteNo="0" devices="tripinfo_veh15 routing_veh15" vType="veh_passenger" speedFactor="0.93" vaporized=""/>
    <tripinfo id="veh13" depart="78.00" departLane="-E4_0" departPos="5.10" departSpeed="0.00" departDelay="0.00" arrival="152.00" arrivalLane="E3_1" arrivalPos="289.60" arrivalSpeed="14.72" duration="74.00" routeLength="594.90" waitingTime="23.00" waitingCount="1" stopTime="0.00" timeLoss="34.93" rerouteNo="0" devices="tripinfo_veh13 routing_veh13" vType="veh_passenger" speedFactor="1.12" vaporized=""/>
    <tripinfo id="veh8" depart="48.00" departLane="-E4_0" departPos="5.10" departSpeed="0.00" departDelay="0.00" arrival="153.00" arrivalLane="-E1_1" arrivalPos="289.60" arrivalSpeed="12.15" duration="105.00" routeLength="592.43" waitingTime="50.00" waitingCount="1" stopTime="0.00" timeLoss="58.57" rerouteNo="0" devices="tripinfo_veh8 routing_veh8" vType="veh_passenger" speedFactor="0.94" vaporized=""/>
    <tripinfo id="veh17" depart="102.00" departLane="-E3_0" departPos="5.10" departSpeed="0.00" departDelay="0.00" arrival="159.00" arrivalLane="-E1_0" arrivalPos="289.60" arrivalSpeed="11.86" duration="57.00" routeLength="583.13" waitingTime="3.00" waitingCount="1" stopTime="0.00" timeLoss="11.86" rerouteNo="0" devices="tripinfo_veh17 routing_veh17" vType="veh_passenger" speedFactor="0.94" vaporized=""/>
    <tripinfo id="veh16" depart="96.00" departLane="-E3_0" departPos="5.10" departSpeed="0.00" departDelay="0.00" arrival="160.00" arrivalLane="-E5_0" arrivalPos="289.60" arrivalSpeed="12.03" duration="64.00" routeLength="597.32" waitingTime="6.00" waitingCount="1" stopTime="0.00" timeLoss="13.91" rerouteNo="0" devices="tripinfo_veh16 routing_veh16" vType="veh_passenger" speedFactor="0.88" vaporized=""/>
    <tripinfo id="veh18" depart="108.00" departLane="-E3_0" departPos="5.10" departSpeed="0.00" departDelay="0.00" arrival="161.00" arrivalLane="-E5_1" arrivalPos="289.60" arrivalSpeed="12.40" duration="53.00" routeLength="592.43" waitingTime="0.00" waitingCount="0" stopTime="0.00" timeLoss="6.32" rerouteNo="0" devices="tripinfo_veh18 routing_veh18" vType="veh_passenger" speedFactor="0.94" vaporized=""/>
    <tripinfo id="veh19" depart="114.00" departLane="E1_0" departPos="5.10" departSpeed="0.00" departDelay="0.00" arrival="164.00" arrivalLane="-E5_0" arrivalPos="289.60" arrivalSpeed="15.29" duration="50.00" routeLength="594.90" waitingTime="2.00" waitingCount="1" stopTime="0.00" timeLoss="12.67" rerouteNo="0" devices="tripinfo_veh19 routing_veh19" vType="veh_passenger" speedFactor="1.16" vaporized=""/>
    <tripinfo id="veh20" depart="120.00" departLane="-E4_0" departPos="5.10" departSpeed="0.00" departDelay="0.00" arrival="171.00" arrivalLane="-E1_0" arrivalPos="289.60" arrivalSpeed="14.07" duration="51.00" routeLength="597.32" waitingTime="0.00" waitingCount="0" stopTime="0.00" timeLoss="7.14" rerouteNo="0" devices="tripinfo_veh20 routing_veh20" vType="veh_passenger" speedFactor="1.02" vaporized=""/>
    <tripinfo id="veh22" depart="132.00" departLane="-E3_0" departPos="5.10" departSpeed="0.00" departDelay="0.00" arrival="198.00" arrivalLane="-E5_0" arrivalPos="289.60" arrivalSpeed="12.31" duration="66.00" routeLength="597.32" waitingTime="9.00" waitingCount="1" stopTime="0.00" timeLoss="20.42" rerouteNo="0" devices="tripinfo_veh22 routing_veh22" vType="veh_passenger" speedFactor="0.97" vaporized=""/>
    <tripinfo id="veh21" depart="126.00" departLane="E1_0" departPos="5.10" departSpeed="0.00" departDelay="0.00" arrival="216.00" arrivalLane="E3_1" arrivalPos="289.60" arrivalSpeed="13.41" duration="90.00" routeLength="592.43" waitingTime="38.00" waitingCount="1" stopTime="0.00" timeLoss="46.93" rerouteNo="0" devices="tripinfo_veh21 routing_veh21" vType="veh_passenger" speedFactor="1.01" vaporized=""/>
    <tripinfo id="veh24" depart="144.00" departLane="E1_0" departPos="5.10" departSpeed="0.00" departDelay="0.00" arrival="224.00" arrivalLane="E3_1" arrivalPos="289.60" arrivalSpeed="10.37" duration="80.00" routeLength="592.43" waitingTime="17.00" waitingCount="1" stopTime="0.00" timeLoss="27.13" rerouteNo="0" devices="tripinfo_veh24 routing_veh24" vType="veh_passenger" speedFactor="0.83" vaporized=""/>
    <tripinfo id="veh23" depart="138.00" departLane="E5_0" departPos="5.10" departSpeed="0.00" departDelay="0.00" arrival="225.00" arrivalLane="E3_0" arrivalPos="289.60" arrivalSpeed="12.13" duration="87.00" routeLength="583.13" waitingTime="28.00" waitingCount="1" stopTime="0.00" timeLoss="38.07" rerouteNo="0" devices="tripinfo_veh23 routing_veh23" vType="veh_passenger" speedFactor="0.89" vaporized=""/>
    <tripinfo id="veh25" depart="150.00" departLane="E5_0" departPos="5.10" departSpeed="0.00" departDelay="0.00" arrival="226.00" arrivalLane="E4_0" arrivalPos="289.60" arrivalSpeed="11.71" duration="76.00" routeLength="592.43" waitingTime="17.00" waitingCount="1" stopTime="0.00" timeLoss="25.57" rerouteNo="0" devices="tripinfo_veh25 routing_veh25" vType="veh_passenger" speedFactor="0.87" vaporized=""/>
    <tripinfo id="veh28" depart="168.00" departLane="-E3_0" departPos="5.10" departSpeed="0.00" departDelay="0.00" arrival="239.00" arrivalLane="E4_1" arrivalPos="289.60" arrivalSpeed="15.54" duration="71.00" routeLength="594.90" waitingTime="22.00" waitingCount="1" stopTime="0.00" timeLoss="32.90" rerouteNo="0" devices="tripinfo_veh28 routing_veh28" vType="veh_passenger" speedFactor="1.13" vaporized=""/>
    <tripinfo id="veh26" depart="156.00" departLane="-E3_0" departPos="5.10" departSpeed="0.00" departDelay="0.00" arrival="243.00" arrivalLane="-E1_0" arrivalPos="289.60" arrivalSpeed="12.40" duration="87.00" routeLength="583.13" waitingTime="30.00" waitingCount="1" stopTime="0.00" timeLoss="40.06" rerouteNo="0" devices="tripinfo_veh26 routing_veh26" vType="veh_passenger" speedFactor="0.92" vaporized=""/>
    <tripinfo id="veh31" depart="186.00" departLane="E1_0" departPos="5.10" departSpeed="0.00" departDelay="0.00" arrival="254.00" arrivalLane="-E5_1" arrivalPos="289.60" arrivalSpeed="15.63" duration="68.00" routeLength="594.90" waitingTime="20.00" waitingCount="1" stopTime="0.00" timeLoss="30.59" rerouteNo="0" devices="tripinfo_veh31 routing_veh31" vType="veh_passenger" speedFactor="1.15" vaporized=""/>
    <tripinfo id="veh34" depart="204.00" departLane="E5_0" departPos="5.10" departSpeed="0.00" departDelay="0.00" arrival="255.00" arrivalLane="E3_0" arrivalPos="289.60" arrivalSpeed="13.15" duration="51.00" routeLength="583.13" waitingTime="0.00" waitingCount="0" stopTime="0.00" timeLoss="7.42" rerouteNo="0" devices="tripinfo_veh34 routing_veh34" vType="veh_passenger" speedFactor="0.99" vaporized=""/>
    <tripinfo id="veh29" depart="174.00" departLane="E1_0" departPos="5.10" departSpeed="0.00" departDelay="0.00" arrival="259.00" arrivalLane="-E5_0" arrivalPos="289.60" arrivalSpeed="11.65" duration="85.00" routeLength="594.90" waitingTime="29.00" waitingCount="1" stopTime="0.00" timeLoss="38.32" rerouteNo="0" devices="tripinfo_veh29 routing_veh29" vType="veh_passenger" speedFactor="0.93" vaporized=""/>
    <tripinfo id="veh32" depart="192.00" departLane="E1_0" departPos="5.10" departSpeed="0.00" departDelay="0.00" arrival="259.00" arrivalLane="E4_0" arrivalPos="289.60" arrivalSpeed="13.84" duration="67.00" routeLength="583.13" waitingTime="12.00" waitingCount="1" stopTime="0.00" timeLoss="23.61" rerouteNo="0" devices="tripinfo_veh32 routing_veh32" vType="veh_passenger" speedFactor="1.01" vaporized=""/>
    <tripinfo id="veh37" depart="222.00" departLane="E5_0" departPos="5.10" departSpeed="0.00" departDelay="0.00" arrival="273.00" arrivalLane="E3_0" arrivalPos="289.60" arrivalSpeed="16.23" duration="51.00" routeLength="583.13" waitingTime="4.00" waitingCount="1" stopTime="0.00" timeLoss="14.62" rerouteNo="0" devices="tripinfo_veh37 routing_veh37" vType="veh_passenger" speedFactor="1.18" vaporized=""/>
    <tripinfo id="veh38" depart="228.00" departLane="E5_0" departPos="5.10" departSpeed="0.00" departDelay="0.00" arrival="275.00" arrivalLane="E4_1" arrivalPos="289.60" arrivalSpeed="14.39" duration="47.00" routeLength="592.43" waitingTime="0.00" waitingCount="0" stopTime="0.00" timeLoss="7.54" rerouteNo="0" devices="tripinfo_veh38 routing_veh38" vType="veh_passenger" speedFactor="1.10" vaporized=""/>
    <tripinfo id="veh39" depart="234.00" departLane="E1_0" departPos="5.10" departSpeed="0.00" departDelay="0.00" arrival="290.00" arrivalLane="E3_0" arrivalPos="289.60" arrivalSpeed="11.85" duration="56.00" routeLength="592.43" waitingTime="0.00" waitingCount="0" stopTime="0.00" timeLoss="7.45" rerouteNo="0" devices="tripinfo_veh39 routing_veh39" vType="veh_passenger" speedFactor="0.90" vaporized=""/>
    <tripinfo id="veh35" depart="210.00" departLane="-E3_0" departPos="5.10" departSpeed="0.00" departDelay="0.00" arrival="306.00" arrivalLane="-E1_0" arrivalPos="289.60" arrivalSpeed="14.07" duration="96.00" routeLength="583.13" waitingTime="43.00" waitingCount="1" stopTime="0.00" timeLoss="53.63" rerouteNo="0" devices="tripinfo_veh35 routing_veh35" vType="veh_passenger" speedFactor="1.02" vaporized=""/>
    <tripinfo id="veh36" depart="216.00" departLane="-E3_0" departPos="5.10" departSpeed="0.00" departDelay="0.00" arrival="307.00" arrivalLane="-E5_0" arrivalPos="289.60" arrivalSpeed="12.74" duration="91.00" routeLength="592.43" waitingTime="37.00" waitingCount="1" stopTime="0.00" timeLoss="46.34" rerouteNo="0" devices="tripinfo_veh36 routing_veh36" vType="veh_passenger" speedFactor="0.97" vaporized=""/>
    <tripinfo id="veh41" depart="246.00" departLane="-E3_0" departPos="5.10" departSpeed="0.00" departDelay="0.00" arrival="311.00" arrivalLane="-E5_0" arrivalPos="289.60" arrivalSpeed="12.25" duration="65.00" routeLength="597.32" waitingTime="8.00" waitingCount="1" stopTime="0.00" timeLoss="19.33" rerouteNo="0" devices="tripinfo_veh41 routing_veh41" vType="veh_passenger" speedFactor="0.96" vaporized=""/>
    <tripinfo id="veh30" depart="180.00" departLane="-E4_0" departPos="5.10" departSpeed="0.00" departDelay="0.00" arrival="324.00" arrivalLane="-E1_1" arrivalPos="289.60" arrivalSpeed="15.77" duration="144.00" routeLength="592.43" waitingTime="95.00" waitingCount="1" stopTime="0.00" timeLoss="106.46" rerouteNo="0" devices="tripinfo_veh30 routing_veh30" vType="veh_passenger" speedFactor="1.18" vaporized=""/>
    <tripinfo id="veh27" depart="162.00" departLane="-E4_0" departPos="5.10" departSpeed="0.00" departDelay="0.00" arrival="327.00" arrivalLane="-E5_0" arrivalPos="289.60" arrivalSpeed="11.94" duration="165.00" routeLength="583.13" waitingTime="109.00" waitingCount="1" stopTime="0.00" timeLoss="120.07" rerouteNo="0" devices="tripinfo_veh27 routing_veh27" vType="veh_passenger" speedFactor="0.95" vaporized=""/>
    <tripinfo id="veh40" depart="240.00" departLane="-E4_0" departPos="5.10" departSpeed="0.00" departDelay="0.00" arrival="328.00" arrivalLane="E3_1" arrivalPos="289.60" arrivalSpeed="13.76" duration="88.00" routeLength="594.90" waitingTime="33.00" waitingCount="1" stopTime="0.00" timeLoss="45.94" rerouteNo="0" devices="tripinfo_veh40 routing_veh40" vType="veh_passenger" speedFactor="1.03" vaporized=""/>
    <tripinfo id="veh33" depart="198.00" departLane="-E4_0" departPos="5.10" departSpeed="0.00" departDelay="0.00" arrival="329.00" arrivalLane="-E1_0" arrivalPos="289.60" arrivalSpeed="15.42" duration="131.00" routeLength="597.32" waitingTime="79.00" waitingCount="1" stopTime="0.00" timeLoss="93.32" rerouteNo="0" devices="tripinfo_veh33 routing_veh33" vType="veh_passenger" speedFactor="1.17" vaporized=""/>
    <tripinfo id="veh43" depart="258.00" departLane="-E4_0" departPos="5.10" departSpeed="0.00" departDelay="0.00" arrival="356.00" arrivalLane="E3_0" arrivalPos="289.60" arrivalSpeed="14.05" duration="98.00" routeLength="594.90" waitingTime="42.00" waitingCount="2" stopTime="0.00" timeLoss="56.39" rerouteNo="0" devices="tripinfo_veh43 routing_veh43" vType="veh_passenger" speedFactor="1.04" vaporized=""/>
    <tripinfo id="veh42" depart="252.00" departLane="E5_0" departPos="5.10" departSpeed="0.00" departDelay="0.00" arrival="360.00" arrivalLane="E4_0" arrivalPos="289.60" arrivalSpeed="14.18" duration="108.00" routeLength="597.32" waitingTime="59.00" waitingCount="1" stopTime="0.00" timeLoss="67.40" rerouteNo="0" devices="tripinfo_veh42 routing_veh42" vType="veh_passenger" speedFactor="1.09" vaporized=""/>
    <tripinfo id="veh49" depart="294.00" departLane="-E4_0" departPos="5.10" departSpeed="0.00" departDelay="0.00" arrival="360.00" arrivalLane="-E1_0" arrivalPos="289.60" arrivalSpeed="11.58" duration="66.00" routeLength="592.43" waitingTime="6.00" waitingCount="1" stopTime="0.00" timeLoss="14.91" rerouteNo="0" devices="tripinfo_veh49 routing_veh49" vType="veh_passenger" speedFactor="0.85" vaporized=""/>
    <tripinfo id="veh44" depart="264.00" departLane="E5_0" departPos="5.10" departSpeed="0.00" departDelay="0.00" arrival="362.00" arrivalLane="E3_0" arrivalPos="289.60" arrivalSpeed="14.16" duration="98.00" routeLength="583.13" waitingTime="47.00" waitingCount="1" stopTime="0.00" timeLoss="56.72" rerouteNo="0" devices="tripinfo_veh44 routing_veh44" vType="veh_passenger" speedFactor="1.04" vaporized=""/>
    <tripinfo id="veh48" depart="288.00" departLane="E5_0" departPos="5.10" departSpeed="0.00" departDelay="0.00" arrival="365.00" arrivalLane="E4_0" arrivalPos="289.60" arrivalSpeed="11.64" duration="77.00" routeLength="592.43" waitingTime="16.00" waitingCount="1" stopTime="0.00" timeLoss="26.88" rerouteNo="0" devices="tripinfo_veh48 routing_veh48" vType="veh_passenger" speedFactor="0.88" vaporized=""/>
    <tripinfo id="veh50" depart="300.00" departLane="E5_0" departPos="5.10" departSpeed="0.00" departDelay="0.00" arrival="368.00" arrivalLane="E4_0" arrivalPos="289.60" arrivalSpeed="10.98" duration="68.00" routeLength="592.43" waitingTime="7.00" waitingCount="1" stopTime="0.00" timeLoss="16.53" rerouteNo="0" devices="tripinfo_veh50 routing_veh50" vType="veh_passenger" speedFactor="0.85" vaporized=""/>
    <tripinfo id="veh54" depart="324.00" departLane="-E4_0" departPos="5.10" departSpeed="0.00" departDelay="0.00" arrival="372.00" arrivalLane="E3_0" arrivalPos="289.60" arrivalSpeed="13.16" duration="48.00" routeLength="594.90" waitingTime="0.00" waitingCount="0" stopTime="0.00" timeLoss="4.94" rerouteNo="0" devices="tripinfo_veh54 routing_veh54" vType="veh_passenger" speedFactor="1.00" vaporized=""/>
    <tripinfo id="veh47" depart="282.00" departLane="-E3_0" departPos="5.10" departSpeed="0.00" departDelay="0.00" arrival="385.00" arrivalLane="E4_0" arrivalPos="289.60" arrivalSpeed="12.11" duration="103.00" routeLength="594.90" waitingTime="44.00" waitingCount="1" stopTime="0.00" timeLoss="54.78" rerouteNo="0" devices="tripinfo_veh47 routing_veh47" vType="veh_passenger" speedFactor="0.90" vaporized=""/>
    <tripinfo id="veh52" depart="312.00" departLane="-E3_0" departPos="5.10" departSpeed="0.00" departDelay="0.00" arrival="385.00" arrivalLane="E4_1" arrivalPos="289.60" arrivalSpeed="14.08" duration="73.00" routeLength="594.90" waitingTime="17.00" waitingCount="1" stopTime="0.00" timeLoss="30.81" rerouteNo="0" devices="tripinfo_veh52 routing_veh52" vType="veh_passenger" speedFactor="1.02" vaporized=""/>
    <tripinfo id="veh45" depart="270.00" departLane="E5_0" departPos="5.10" departSpeed="0.00" departDelay="0.00" arrival="389.00" arrivalLane="E3_0" arrivalPos="289.60" arrivalSpeed="14.66" duration="119.00" routeLength="583.13" waitingTime="65.00" waitingCount="2" stopTime="0.00" timeLoss="79.58" rerouteNo="0" devices="tripinfo_veh45 routing_veh45" vType="veh_passenger" speedFactor="1.09" vaporized=""/>
    <tripinfo id="veh53" depart="318.00" departLane="E5_0" departPos="5.10" departSpeed="0.00" departDelay="0.00" arrival="390.00" arrivalLane="-E1_1" arrivalPos="289.60" arrivalSpeed="14.39" duration="72.00" routeLength="594.90" waitingTime="21.00" waitingCount="1" stopTime="0.00" timeLoss="32.43" rerouteNo="0" devices="tripinfo_veh53 routing_veh53" vType="veh_passenger" speedFactor="1.10" vaporized=""/>
    <tripinfo id="veh56" depart="336.00" departLane="E1_0" departPos="5.10" departSpeed="0.00" departDelay="0.00" arrival="391.00" arrivalLane="E3_0" arrivalPos="289.60" arrivalSpeed="11.93" duration="55.00" routeLength="592.43" waitingTime="0.00" waitingCount="0" stopTime="0.00" timeLoss="6.54" rerouteNo="0" devices="tripinfo_veh56 routing_veh56" vType="veh_passenger" speedFactor="0.90" vaporized=""/>
    <tripinfo id="veh58" depart="348.00" departLane="E5_0" departPos="5.10" departSpeed="0.00" departDelay="0.00" arrival="406.00" arrivalLane="E3_0" arrivalPos="289.60" arrivalSpeed="14.10" duration="58.00" routeLength="583.13" waitingTime="5.00" waitingCount="1" stopTime="0.00" timeLoss="15.96" rerouteNo="0" devices="tripinfo_veh58 routing_veh58" vType="veh_passenger" speedFactor="1.02" vaporized=""/>
    <tripinfo id="veh51" depart="306.00" departLane="-E3_0" departPos="5.10" departSpeed="0.00" departDelay="0.00" arrival="424.00" arrivalLane="-E5_1" arrivalPos="289.60" arrivalSpeed="15.54" duration="118.00" routeLength="592.43" waitingTime="64.00" waitingCount="3" stopTime="0.00" timeLoss="80.58" rerouteNo="0" devices="tripinfo_veh51 routing_veh51" vType="veh_passenger" speedFactor="1.17" vaporized=""/>
    <tripinfo id="veh63" depart="378.00" departLane="-E3_0" departPos="5.10" departSpeed="0.00" departDelay="0.00" arrival="429.00" arrivalLane="E4_1" arrivalPos="289.60" arrivalSpeed="12.67" duration="51.00" routeLength="594.90" waitingTime="0.00" waitingCount="0" stopTime="0.00" timeLoss="7.16" rerouteNo="0" devices="tripinfo_veh63 routing_veh63" vType="veh_passenger" speedFactor="0.99" vaporized=""/>
    <tripinfo id="veh46" depart="276.00" departLane="-E3_0" departPos="5.10" departSpeed="0.00" departDelay="0.00" arrival="431.00" arrivalLane="-E5_0" arrivalPos="289.60" arrivalSpeed="13.07" duration="155.00" routeLength="597.32" waitingTime="98.00" waitingCount="2" stopTime="0.00" timeLoss="111.32" rerouteNo="0" devices="tripinfo_veh46 routing_veh46" vType="veh_passenger" speedFactor="1.00" vaporized=""/>
    <tripinfo id="veh57" depart="342.00" departLane="-E3_0" departPos="5.10" departSpeed="0.00" departDelay="0.00" arrival="459.00" arrivalLane="-E5_1" arrivalPos="289.60" arrivalSpeed="14.91" duration="117.00" routeLength="592.43" waitingTime="64.00" waitingCount="2" stopTime="0.00" timeLoss="78.97" rerouteNo="0" devices="tripinfo_veh57 routing_veh57" vType="veh_passenger" speedFactor="1.14" vaporized=""/>
    <tripinfo id="veh60" depart="360.00" departLane="-E3_0" departPos="5.10" departSpeed="0.00" departDelay="0.00" arrival="459.00" arrivalLane="-E1_0" arrivalPos="289.60" arrivalSpeed="14.99" duration="99.00" routeLength="583.13" waitingTime="45.00" waitingCount="2" stopTime="0.00" timeLoss="59.72" rerouteNo="0" devices="tripinfo_veh60 routing_veh60" vType="veh_passenger" speedFactor="1.08" vaporized=""/>
    <tripinfo id="veh68" depart="408.00" departLane="-E3_0" departPos="5.10" departSpeed="0.00" departDelay="0.00" arrival="463.00" arrivalLane="-E5_1" arrivalPos="289.60" arrivalSpeed="13.37" duration="55.00" routeLength="592.43" waitingTime="2.00" waitingCount="1" stopTime="0.00" timeLoss="12.90" rerouteNo="0" devices="tripinfo_veh68 routing_veh68" vType="veh_passenger" speedFactor="1.04" vaporized=""/>
    <tripinfo id="veh62" depart="372.00" departLane="-E3_0" departPos="5.10" departSpeed="0.00" departDelay="0.00" arrival="464.00" arrivalLane="-E1_0" arrivalPos="289.60" arrivalSpeed="13.74" duration="92.00" routeLength="583.13" waitingTime="32.00" waitingCount="2" stopTime="0.00" timeLoss="48.99" rerouteNo="0" devices="tripinfo_veh62 routing_veh62" vType="veh_passenger" speedFactor="1.02" vaporized=""/>
    <tripinfo id="veh59" depart="354.00" departLane="-E4_0" departPos="5.10" departSpeed="0.00" departDelay="0.00" arrival="473.00" arrivalLane="E3_0" arrivalPos="289.60" arrivalSpeed="12.65" duration="119.00" routeLength="594.90" waitingTime="65.00" waitingCount="1" stopTime="0.00" timeLoss="74.34" rerouteNo="0" devices="tripinfo_veh59 routing_veh59" vType="veh_passenger" speedFactor="0.97" vaporized=""/>
    <tripinfo id="veh61" depart="366.00" departLane="-E4_0" departPos="5.10" departSpeed="0.00" departDelay="0.00" arrival="474.00" arrivalLane="E3_1" arrivalPos="289.60" arrivalSpeed="15.26" duration="108.00" routeLength="594.90" waitingTime="56.00" waitingCount="1" stopTime="0.00" timeLoss="69.55" rerouteNo="0" devices="tripinfo_veh61 routing_veh61" vType="veh_passenger" speedFactor="1.12" vaporized=""/>
    <tripinfo id="veh70" depart="420.00" departLane="E1_0" departPos="5.10" departSpeed="0.00" departDelay="0.00" arrival="477.00" arrivalLane="E3_1" arrivalPos="289.60" arrivalSpeed="13.63" duration="57.00" routeLength="592.43" waitingTime="4.00" waitingCount="1" stopTime="0.00" timeLoss="14.07" rerouteNo="0" devices="tripinfo_veh70 routing_veh70" vType="veh_passenger" speedFactor="1.02" vaporized=""/>
    <tripinfo id="veh55" depart="330.00" departLane="-E4_0" departPos="5.10" departSpeed="0.00" departDelay="0.00" arrival="482.00" arrivalLane="-E1_0" arrivalPos="289.60" arrivalSpeed="12.89" duration="152.00" routeLength="597.32" waitingTime="97.00" waitingCount="2" stopTime="0.00" timeLoss="108.06" rerouteNo="0" devices="tripinfo_veh55 routing_veh55" vType="veh_passenger" speedFactor="1.00" vaporized=""/>
    <tripinfo id="veh69" depart="414.00" departLane="-E4_0" departPos="5.10" departSpeed="0.00" departDelay="0.00" arrival="483.00" arrivalLane="-E5_0" arrivalPos="289.60" arrivalSpeed="13.43" duration="69.00" routeLength="583.13" waitingTime="12.00" waitingCount="2" stopTime="0.00" timeLoss="26.87" rerouteNo="0" devices="tripinfo_veh69 routing_veh69" vType="veh_passenger" speedFactor="1.02" vaporized=""/>
    <tripinfo id="veh64" depart="384.00" departLane="E5_0" departPos="5.10" departSpeed="0.00" departDelay="0.00" arrival="493.00" arrivalLane="-E1_0" arrivalPos="289.60" arrivalSpeed="12.82" duration="109.00" routeLength="594.90" waitingTime="53.00" waitingCount="1" stopTime="0.00" timeLoss="62.75" rerouteNo="0" devices="tripinfo_veh64 routing_veh64" vType="veh_passenger" speedFactor="0.94" vaporized=""/>
    <tripinfo id="veh67" depart="402.00" departLane="E5_0" departPos="5.10" departSpeed="0.00" departDelay="0.00" arrival="494.00" arrivalLane="-E1_1" arrivalPos="289.60" arrivalSpeed="12.55" duration="92.00" routeLength="594.90" waitingTime="34.00" waitingCount="1" stopTime="0.00" timeLoss="44.65" rerouteNo="0" devices="tripinfo_veh67 routing_veh67" vType="veh_passenger" speedFactor="0.91" vaporized=""/>
    <tripinfo id="veh71" depart="426.00" departLane="E5_0" departPos="5.10" departSpeed="0.00" departDelay="0.00" arrival="496.00" arrivalLane="-E1_1" arrivalPos="289.60" arrivalSpeed="12.42" duration="70.00" routeLength="594.90" waitingTime="13.00" waitingCount="1" stopTime="0.00" timeLoss="25.21" rerouteNo="0" devices="tripinfo_veh71 routing_veh71" vType="veh_passenger" speedFactor="0.97" vaporized=""/>
    <tripinfo id="veh66" depart="396.00" departLane="E5_0" departPos="5.10" departSpeed="0.00" departDelay="0.00" arrival="497.00" arrivalLane="E3_0" arrivalPos="289.60" arrivalSpeed="11.68" duration="101.00" routeLength="583.13" waitingTime="42.00" waitingCount="1" stopTime="0.00" timeLoss="53.08" rerouteNo="0" devices="tripinfo_veh66 routing_veh66" vType="veh_passenger" speedFactor="0.91" vaporized=""/>