<?xml version="1.0" encoding="UTF-8"?>

<!-- generated on 2024-05-30 15:43:46 by Eclipse SUMO sumo Version 1.20.0
<configuration xmlns:xsi="http://www.w3.org/2001/XMLSchema-instance" xsi:noNamespaceSchemaLocation="http://sumo.dlr.de/xsd/sumoConfiguration.xsd">

    <input>
        <net-file value="osm.net.xml"/>
        <route-files value="osm.passenger.trips.xml"/>
    </input>

    <output>
        <tripinfo-output value="tripinfo.xml"/>
    </output>

    <traci_server>
        <remote-port value="55901"/>
    </traci_server>

    <gui_only>
        <gui-settings-file value="osm.view.xml"/>
    </gui_only>

</configuration>
-->

<tripinfos xmlns:xsi="http://www.w3.org/2001/XMLSchema-instance" xsi:noNamespaceSchemaLocation="http://sumo.dlr.de/xsd/tripinfo_file.xsd">
    <tripinfo id="0" depart="0.00" departLane="E5_0" departPos="5.10" departSpeed="0.00" departDelay="0.00" arrival="48.00" arrivalLane="E3_0" arrivalPos="289.60" arrivalSpeed="13.61" duration="48.00" routeLength="583.13" waitingTime="0.00" waitingCount="0" stopTime="0.00" timeLoss="7.00" rerouteNo="0" devices="tripinfo_0 routing_0" vType="DEFAULT_VEHTYPE" speedFactor="1.06" vaporized=""/>
    <tripinfo id="2" depart="0.00" departLane="E1_0" departPos="5.10" departSpeed="0.00" departDelay="0.00" arrival="58.00" arrivalLane="E4_0" arrivalPos="289.60" arrivalSpeed="13.35" duration="58.00" routeLength="583.13" waitingTime="4.00" waitingCount="1" stopTime="0.00" timeLoss="15.45" rerouteNo="0" devices="tripinfo_2 routing_2" vType="DEFAULT_VEHTYPE" speedFactor="1.01" vaporized=""/>
    <tripinfo id="3" depart="3.00" departLane="E1_0" departPos="5.10" departSpeed="0.00" departDelay="2.00" arrival="58.00" arrivalLane="-E5_1" arrivalPos="289.60" arrivalSpeed="13.91" duration="55.00" routeLength="594.90" waitingTime="3.00" waitingCount="1" stopTime="0.00" timeLoss="14.88" rerouteNo="0" devices="tripinfo_3 routing_3" vType="DEFAULT_VEHTYPE" speedFactor="1.08" vaporized=""/>
    <tripinfo id="12" depart="9.00" departLane="E1_0" departPos="5.10" departSpeed="0.00" departDelay="2.00" arrival="61.00" arrivalLane="E3_1" arrivalPos="289.60" arrivalSpeed="13.44" duration="52.00" routeLength="592.43" waitingTime="0.00" waitingCount="0" stopTime="0.00" timeLoss="8.77" rerouteNo="0" devices="tripinfo_12 routing_12" vType="DEFAULT_VEHTYPE" speedFactor="1.03" vaporized=""/>
    <tripinfo id="7" depart="6.00" departLane="E1_0" departPos="5.10" departSpeed="0.00" departDelay="3.00" arrival="64.00" arrivalLane="E4_0" arrivalPos="289.60" arrivalSpeed="11.63" duration="58.00" routeLength="583.13" waitingTime="0.00" waitingCount="0" stopTime="0.00" timeLoss="8.81" rerouteNo="0" devices="tripinfo_7 routing_7" vType="DEFAULT_VEHTYPE" speedFactor="0.89" vaporized=""/>
    <tripinfo id="20" depart="12.00" departLane="E1_0" departPos="5.10" departSpeed="0.00" departDelay="1.00" arrival="66.00" arrivalLane="E3_0" arrivalPos="289.60" arrivalSpeed="12.12" duration="54.00" routeLength="592.43" waitingTime="0.00" waitingCount="0" stopTime="0.00" timeLoss="7.30" rerouteNo="0" devices="tripinfo_20 routing_20" vType="DEFAULT_VEHTYPE" speedFactor="0.93" vaporized=""/>
    <tripinfo id="26" depart="18.00" departLane="E1_0" departPos="5.10" departSpeed="0.00" departDelay="0.00" arrival="67.00" arrivalLane="E4_0" arrivalPos="289.60" arrivalSpeed="14.08" duration="49.00" routeLength="583.13" waitingTime="0.00" waitingCount="0" stopTime="0.00" timeLoss="6.57" rerouteNo="0" devices="tripinfo_26 routing_26" vType="DEFAULT_VEHTYPE" speedFactor="1.02" vaporized=""/>
    <tripinfo id="10" depart="6.00" departLane="-E4_0" departPos="5.10" departSpeed="0.00" departDelay="0.00" arrival="70.00" arrivalLane="E3_1" arrivalPos="289.60" arrivalSpeed="14.74" duration="64.00" routeLength="594.90" waitingTime="13.00" waitingCount="1" stopTime="0.00" timeLoss="23.92" rerouteNo="0" devices="tripinfo_10 routing_10" vType="DEFAULT_VEHTYPE" speedFactor="1.09" vaporized=""/>
    <tripinfo id="25" depart="17.00" departLane="-E4_0" departPos="5.10" departSpeed="0.00" departDelay="0.00" arrival="70.00" arrivalLane="-E1_1" arrivalPos="289.60" arrivalSpeed="15.66" duration="53.00" routeLength="592.43" waitingTime="3.00" waitingCount="1" stopTime="0.00" timeLoss="15.36" rerouteNo="0" devices="tripinfo_25 routing_25" vType="DEFAULT_VEHTYPE" speedFactor="1.16" vaporized=""/>
    <tripinfo id="37" depart="30.00" departLane="-E4_0" departPos="5.10" departSpeed="0.00" departDelay="3.00" arrival="76.00" arrivalLane="E3_0" arrivalPos="289.60" arrivalSpeed="15.37" duration="46.00" routeLength="594.90" waitingTime="0.00" waitingCount="0" stopTime="0.00" timeLoss="8.77" rerouteNo="0" devices="tripinfo_37 routing_37" vType="DEFAULT_VEHTYPE" speedFactor="1.18" vaporized=""/>
    <tripinfo id="1" depart="0.00" departLane="-E4_0" departPos="5.10" departSpeed="0.00" departDelay="0.00" arrival="77.00" arrivalLane="-E1_0" arrivalPos="289.60" arrivalSpeed="12.78" duration="77.00" routeLength="597.32" waitingTime="16.00" waitingCount="1" stopTime="0.00" timeLoss="29.95" rerouteNo="0" devices="tripinfo_1 routing_1" vType="DEFAULT_VEHTYPE" speedFactor="0.94" vaporized=""/>
    <tripinfo id="23" depart="13.00" departLane="-E4_0" departPos="5.10" departSpeed="0.00" departDelay="0.00" arrival="77.00" arrivalLane="-E1_1" arrivalPos="289.60" arrivalSpeed="12.10" duration="64.00" routeLength="592.43" waitingTime="5.00" waitingCount="1" stopTime="0.00" timeLoss="17.13" rerouteNo="0" devices="tripinfo_23 routing_23" vType="DEFAULT_VEHTYPE" speedFactor="0.94" vaporized=""/>
    <tripinfo id="38" depart="33.00" departLane="-E4_0" departPos="5.10" departSpeed="0.00" departDelay="4.00" arrival="77.00" arrivalLane="E3_1" arrivalPos="289.60" arrivalSpeed="15.10" duration="44.00" routeLength="594.90" waitingTime="0.00" waitingCount="0" stopTime="0.00" timeLoss="6.23" rerouteNo="0" devices="tripinfo_38 routing_38" vType="DEFAULT_VEHTYPE" speedFactor="1.15" vaporized=""/>
    <tripinfo id="17" depart="9.00" departLane="-E4_0" departPos="5.10" departSpeed="0.00" departDelay="0.00" arrival="78.00" arrivalLane="-E1_0" arrivalPos="289.60" arrivalSpeed="14.40" duration="69.00" routeLength="597.32" waitingTime="11.00" waitingCount="1" stopTime="0.00" timeLoss="30.17" rerouteNo="0" devices="tripinfo_17 routing_17" vType="DEFAULT_VEHTYPE" speedFactor="1.12" vaporized=""/>
    <tripinfo id="35" depart="27.00" departLane="-E4_0" departPos="5.10" departSpeed="0.00" departDelay="0.00" arrival="78.00" arrivalLane="-E1_1" arrivalPos="289.60" arrivalSpeed="14.28" duration="51.00" routeLength="592.43" waitingTime="0.00" waitingCount="0" stopTime="0.00" timeLoss="12.73" rerouteNo="0" devices="tripinfo_35 routing_35" vType="DEFAULT_VEHTYPE" speedFactor="1.13" vaporized=""/>
    <tripinfo id="44" depart="36.00" departLane="-E4_0" departPos="5.10" departSpeed="0.00" departDelay="2.00" arrival="86.00" arrivalLane="-E5_0" arrivalPos="289.60" arrivalSpeed="13.16" duration="50.00" routeLength="583.13" waitingTime="0.00" waitingCount="0" stopTime="0.00" timeLoss="6.12" rerouteNo="0" devices="tripinfo_44 routing_44" vType="DEFAULT_VEHTYPE" speedFactor="0.99" vaporized=""/>
    <tripinfo id="52" depart="42.00" departLane="-E4_0" departPos="5.10" departSpeed="0.00" departDelay="5.00" arrival="87.00" arrivalLane="-E1_1" arrivalPos="289.60" arrivalSpeed="15.57" duration="45.00" routeLength="592.43" waitingTime="0.00" waitingCount="0" stopTime="0.00" timeLoss="7.70" rerouteNo="0" devices="tripinfo_52 routing_52" vType="DEFAULT_VEHTYPE" speedFactor="1.18" vaporized=""/>
    <tripinfo id="46" depart="39.00" departLane="-E4_0" departPos="5.10" departSpeed="0.00" departDelay="5.00" arrival="89.00" arrivalLane="-E5_0" arrivalPos="289.60" arrivalSpeed="13.88" duration="50.00" routeLength="583.13" waitingTime="0.00" waitingCount="0" stopTime="0.00" timeLoss="7.41" rerouteNo="0" devices="tripinfo_46 routing_46" vType="DEFAULT_VEHTYPE" speedFactor="1.02" vaporized=""/>
    <tripinfo id="62" depart="45.00" departLane="-E4_0" departPos="5.10" departSpeed="0.00" departDelay="2.00" arrival="93.00" arrivalLane="-E5_0" arrivalPos="289.60" arrivalSpeed="14.43" duration="48.00" routeLength="583.13" waitingTime="0.00" waitingCount="0" stopTime="0.00" timeLoss="6.79" rerouteNo="0" devices="tripinfo_62 routing_62" vType="DEFAULT_VEHTYPE" speedFactor="1.04" vaporized=""/>
    <tripinfo id="64" depart="48.00" departLane="-E4_0" departPos="5.10" departSpeed="0.00" departDelay="3.00" arrival="98.00" arrivalLane="-E1_0" arrivalPos="289.60" arrivalSpeed="13.75" duration="50.00" routeLength="597.32" waitingTime="0.00" waitingCount="0" stopTime="0.00" timeLoss="6.16" rerouteNo="0" devices="tripinfo_64 routing_64" vType="DEFAULT_VEHTYPE" speedFactor="1.00" vaporized=""/>
    <tripinfo id="8" depart="6.00" departLane="E5_0" departPos="5.10" departSpeed="0.00" departDelay="3.00" arrival="104.00" arrivalLane="-E1_0" arrivalPos="289.60" arrivalSpeed="12.43" duration="98.00" routeLength="594.90" waitingTime="42.00" waitingCount="1" stopTime="0.00" timeLoss="51.90" rerouteNo="0" devices="tripinfo_8 routing_8" vType="DEFAULT_VEHTYPE" speedFactor="0.94" vaporized=""/>
    <tripinfo id="30" depart="22.00" departLane="E5_0" departPos="5.10" departSpeed="0.00" departDelay="0.00" arrival="109.00" arrivalLane="-E1_0" arrivalPos="289.60" arrivalSpeed="11.09" duration="87.00" routeLength="594.90" waitingTime="24.00" waitingCount="1" stopTime="0.00" timeLoss="35.03" rerouteNo="0" devices="tripinfo_30 routing_30" vType="DEFAULT_VEHTYPE" speedFactor="0.83" vaporized=""/>
    <tripinfo id="36" depart="28.00" departLane="E5_0" departPos="5.10" departSpeed="0.00" departDelay="1.00" arrival="110.00" arrivalLane="-E1_1" arrivalPos="289.60" arrivalSpeed="12.64" duration="82.00" routeLength="594.90" waitingTime="22.00" waitingCount="1" stopTime="0.00" timeLoss="35.21" rerouteNo="0" devices="tripinfo_36 routing_36" vType="DEFAULT_VEHTYPE" speedFactor="0.93" vaporized=""/>
    <tripinfo id="63" depart="45.00" departLane="E5_0" departPos="5.10" departSpeed="0.00" departDelay="0.00" arrival="111.00" arrivalLane="-E1_0" arrivalPos="289.60" arrivalSpeed="14.55" duration="66.00" routeLength="594.90" waitingTime="11.00" waitingCount="1" stopTime="0.00" timeLoss="26.15" rerouteNo="0" devices="tripinfo_63 routing_63" vType="DEFAULT_VEHTYPE" speedFactor="1.09" vaporized=""/>
    <tripinfo id="70" depart="57.00" departLane="E5_0" departPos="5.10" departSpeed="0.00" departDelay="6.00" arrival="111.00" arrivalLane="E4_1" arrivalPos="289.60" arrivalSpeed="14.98" duration="54.00" routeLength="592.43" waitingTime="2.00" waitingCount="1" stopTime="0.00" timeLoss="16.70" rerouteNo="0" devices="tripinfo_70 routing_70" vType="DEFAULT_VEHTYPE" speedFactor="1.17" vaporized=""/>
    <tripinfo id="66" depart="48.00" departLane="E5_0" departPos="5.10" departSpeed="0.00" departDelay="2.00" arrival="114.00" arrivalLane="-E1_0" arrivalPos="289.60" arrivalSpeed="11.66" duration="66.00" routeLength="594.90" waitingTime="6.00" waitingCount="1" stopTime="0.00" timeLoss="17.00" rerouteNo="0" devices="tripinfo_66 routing_66" vType="DEFAULT_VEHTYPE" speedFactor="0.88" vaporized=""/>
    <tripinfo id="71" depart="60.00" departLane="E5_0" departPos="5.10" departSpeed="0.00" departDelay="9.00" arrival="116.00" arrivalLane="E4_1" arrivalPos="289.60" arrivalSpeed="13.55" duration="56.00" routeLength="592.43" waitingTime="0.00" waitingCount="0" stopTime="0.00" timeLoss="12.99" rerouteNo="0" devices="tripinfo_71 routing_71" vType="DEFAULT_VEHTYPE" speedFactor="1.02" vaporized=""/>
    <tripinfo id="74" depart="63.00" departLane="E5_0" departPos="5.10" departSpeed="0.00" departDelay="9.00" arrival="117.00" arrivalLane="-E1_1" arrivalPos="289.60" arrivalSpeed="12.73" duration="54.00" routeLength="594.90" waitingTime="0.00" waitingCount="0" stopTime="0.00" timeLoss="11.11" rerouteNo="0" devices="tripinfo_74 routing_74" vType="DEFAULT_VEHTYPE" speedFactor="1.00" vaporized=""/>
    <tripinfo id="76" depart="66.00" departLane="E5_0" departPos="5.10" departSpeed="0.00" departDelay="10.00" arrival="119.00" arrivalLane="-E1_1" arrivalPos="289.60" arrivalSpeed="12.79" duration="53.00" routeLength="594.90" waitingTime="0.00" waitingCount="0" stopTime="0.00" timeLoss="10.00" rerouteNo="0" devices="tripinfo_76 routing_76" vType="DEFAULT_VEHTYPE" speedFactor="1.00" vaporized=""/>
    <tripinfo id="21" depart="15.00" departLane="-E3_0" departPos="5.10" departSpeed="0.00" departDelay="3.00" arrival="127.00" arrivalLane="E4_0" arrivalPos="289.60" arrivalSpeed="11.67" duration="112.00" routeLength="594.90" waitingTime="53.00" waitingCount="1" stopTime="0.00" timeLoss="63.08" rerouteNo="0" devices="tripinfo_21 routing_21" vType="DEFAULT_VEHTYPE" speedFactor="0.88" vaporized=""/>
    <tripinfo id="27" depart="21.00" departLane="-E3_0" departPos="5.10" departSpeed="0.00" departDelay="2.00" arrival="128.00" arrivalLane="E4_1" arrivalPos="289.60" arrivalSpeed="13.88" duration="107.00" routeLength="594.90" waitingTime="52.00" waitingCount="1" stopTime="0.00" timeLoss="63.88" rerouteNo="0" devices="tripinfo_27 routing_27" vType="DEFAULT_VEHTYPE" speedFactor="1.01" vaporized=""/>
    <tripinfo id="4" depart="1.00" departLane="-E3_0" departPos="5.10" departSpeed="0.00" departDelay="0.00" arrival="130.00" arrivalLane="-E5_0" arrivalPos="289.60" arrivalSpeed="14.00" duration="129.00" routeLength="597.32" waitingTime="72.00" waitingCount="2" stopTime="0.00" timeLoss="85.94" rerouteNo="0" devices="tripinfo_4 routing_4" vType="DEFAULT_VEHTYPE" speedFactor="1.03" vaporized=""/>
    <tripinfo id="28" depart="24.00" departLane="-E3_0" departPos="5.10" departSpeed="0.00" departDelay="4.00" arrival="130.00" arrivalLane="-E5_1" arrivalPos="289.60" arrivalSpeed="12.48" duration="106.00" routeLength="592.43" waitingTime="49.00" waitingCount="1" stopTime="0.00" timeLoss="61.06" rerouteNo="0" devices="tripinfo_28 routing_28" vType="DEFAULT_VEHTYPE" speedFactor="0.97" vaporized=""/>
    <tripinfo id="6" depart="4.00" departLane="-E3_0" departPos="5.10" departSpeed="0.00" departDelay="1.00" arrival="131.00" arrivalLane="-E1_0" arrivalPos="289.60" arrivalSpeed="13.66" duration="127.00" routeLength="583.13" waitingTime="70.00" waitingCount="2" stopTime="0.00" timeLoss="85.38" rerouteNo="0" devices="tripinfo_6 routing_6" vType="DEFAULT_VEHTYPE" speedFactor="1.05" vaporized=""/>
    <tripinfo id="41" depart="30.00" departLane="-E3_0" departPos="5.10" departSpeed="0.00" departDelay="0.00" arrival="132.00" arrivalLane="-E5_1" arrivalPos="289.60" arrivalSpeed="13.38" duration="102.00" routeLength="592.43" waitingTime="46.00" waitingCount="1" stopTime="0.00" timeLoss="58.52" rerouteNo="0" devices="tripinfo_41 routing_41" vType="DEFAULT_VEHTYPE" speedFactor="1.01" vaporized=""/>
    <tripinfo id="43" depart="33.00" departLane="E5_0" departPos="5.10" departSpeed="0.00" departDelay="0.00" arrival="134.00" arrivalLane="E4_1" arrivalPos="289.60" arrivalSpeed="16.20" duration="101.00" routeLength="592.43" waitingTime="42.00" waitingCount="3" stopTime="0.00" timeLoss="63.46" rerouteNo="0" devices="tripinfo_43 routing_43" vType="DEFAULT_VEHTYPE" speedFactor="1.17" vaporized=""/>
    <tripinfo id="5" depart="3.00" departLane="E5_0" departPos="5.10" departSpeed="0.00" departDelay="1.00" arrival="143.00" arrivalLane="E4_0" arrivalPos="289.60" arrivalSpeed="10.67" duration="140.00" routeLength="597.32" waitingTime="74.00" waitingCount="2" stopTime="0.00" timeLoss="86.94" rerouteNo="0" devices="tripinfo_5 routing_5" vType="DEFAULT_VEHTYPE" speedFactor="0.83" vaporized=""/>
    <tripinfo id="9" depart="9.00" departLane="E5_0" departPos="5.10" departSpeed="0.00" departDelay="4.00" arrival="143.00" arrivalLane="-E1_0" arrivalPos="289.60" arrivalSpeed="10.71" duration="134.00" routeLength="594.90" waitingTime="71.00" waitingCount="2" stopTime="0.00" timeLoss="83.72" rerouteNo="0" devices="tripinfo_9 routing_9" vType="DEFAULT_VEHTYPE" speedFactor="0.86" vaporized=""/>
    <tripinfo id="54" depart="38.00" departLane="E5_0" departPos="5.10" departSpeed="0.00" departDelay="0.00" arrival="143.00" arrivalLane="E3_1" arrivalPos="289.60" arrivalSpeed="14.45" duration="105.00" routeLength="583.13" waitingTime="43.00" waitingCount="3" stopTime="0.00" timeLoss="65.23" rerouteNo="0" devices="tripinfo_54 routing_54" vType="DEFAULT_VEHTYPE" speedFactor="1.10" vaporized=""/>
    <tripinfo id="32" depart="25.00" departLane="E5_0" departPos="5.10" departSpeed="0.00" departDelay="1.00" arrival="144.00" arrivalLane="E3_0" arrivalPos="289.60" arrivalSpeed="12.05" duration="119.00" routeLength="583.13" waitingTime="56.00" waitingCount="2" stopTime="0.00" timeLoss="72.51" rerouteNo="0" devices="tripinfo_32 routing_32" vType="DEFAULT_VEHTYPE" speedFactor="0.92" vaporized=""/>
    <tripinfo id="68" depart="51.00" departLane="E5_0" departPos="5.10" departSpeed="0.00" departDelay="3.00" arrival="145.00" arrivalLane="-E1_1" arrivalPos="289.60" arrivalSpeed="11.07" duration="94.00" routeLength="594.90" waitingTime="18.00" waitingCount="3" stopTime="0.00" timeLoss="43.21" rerouteNo="0" devices="tripinfo_68 routing_68" vType="DEFAULT_VEHTYPE" speedFactor="0.85" vaporized=""/>
    <tripinfo id="94" depart="78.00" departLane="E5_0" departPos="5.10" departSpeed="0.00" departDelay="12.00" arrival="146.00" arrivalLane="E4_1" arrivalPos="289.60" arrivalSpeed="11.92" duration="68.00" routeLength="592.43" waitingTime="7.00" waitingCount="1" stopTime="0.00" timeLoss="19.77" rerouteNo="0" devices="tripinfo_94 routing_94" vType="DEFAULT_VEHTYPE" speedFactor="0.91" vaporized=""/>
    <tripinfo id="101" depart="84.00" departLane="E5_0" departPos="5.10" departSpeed="0.00" departDelay="13.00" arrival="147.00" arrivalLane="-E1_1" arrivalPos="289.60" arrivalSpeed="12.01" duration="63.00" routeLength="594.90" waitingTime="4.00" waitingCount="1" stopTime="0.00" timeLoss="17.48" rerouteNo="0" devices="tripinfo_101 routing_101" vType="DEFAULT_VEHTYPE" speedFactor="0.96" vaporized=""/>
    <tripinfo id="103" depart="87.00" departLane="E5_0" departPos="5.10" departSpeed="0.00" departDelay="14.00" arrival="147.00" arrivalLane="E4_1" arrivalPos="289.60" arrivalSpeed="13.89" duration="60.00" routeLength="592.43" waitingTime="3.00" waitingCount="1" stopTime="0.00" timeLoss="17.87" rerouteNo="0" devices="tripinfo_103 routing_103" vType="DEFAULT_VEHTYPE" speedFactor="1.03" vaporized=""/>
    <tripinfo id="85" depart="69.00" departLane="E5_0" departPos="5.10" departSpeed="0.00" departDelay="9.00" arrival="148.00" arrivalLane="E3_1" arrivalPos="289.60" arrivalSpeed="15.18" duration="79.00" routeLength="583.13" waitingTime="16.00" waitingCount="2" stopTime="0.00" timeLoss="39.98" rerouteNo="0" devices="tripinfo_85 routing_85" vType="DEFAULT_VEHTYPE" speedFactor="1.12" vaporized=""/>
    <tripinfo id="104" depart="90.00" departLane="E5_0" departPos="5.10" departSpeed="0.00" departDelay="17.00" arrival="149.00" arrivalLane="-E1_1" arrivalPos="289.60" arrivalSpeed="12.53" duration="59.00" routeLength="594.90" waitingTime="0.00" waitingCount="0" stopTime="0.00" timeLoss="14.99" rerouteNo="0" devices="tripinfo_104 routing_104" vType="DEFAULT_VEHTYPE" speedFactor="0.98" vaporized=""/>
    <tripinfo id="69" depart="54.00" departLane="E5_0" departPos="5.10" departSpeed="0.00" departDelay="5.00" arrival="151.00" arrivalLane="E3_0" arrivalPos="289.60" arrivalSpeed="11.01" duration="97.00" routeLength="583.13" waitingTime="24.00" waitingCount="3" stopTime="0.00" timeLoss="46.98" rerouteNo="0" devices="tripinfo_69 routing_69" vType="DEFAULT_VEHTYPE" speedFactor="0.85" vaporized=""/>
    <tripinfo id="109" depart="93.00" departLane="E5_0" departPos="5.10" departSpeed="0.00" departDelay="13.00" arrival="152.00" arrivalLane="E4_1" arrivalPos="289.60" arrivalSpeed="13.20" duration="59.00" routeLength="592.43" waitingTime="0.00" waitingCount="0" stopTime="0.00" timeLoss="16.38" rerouteNo="0" devices="tripinfo_109 routing_109" vType="DEFAULT_VEHTYPE" speedFactor="1.03" vaporized=""/>
    <tripinfo id="86" depart="72.00" departLane="E5_0" departPos="5.10" departSpeed="0.00" departDelay="12.00" arrival="153.00" arrivalLane="E3_1" arrivalPos="289.60" arrivalSpeed="13.41" duration="81.00" routeLength="583.13" waitingTime="14.00" waitingCount="1" stopTime="0.00" timeLoss="37.83" rerouteNo="0" devices="tripinfo_86 routing_86" vType="DEFAULT_VEHTYPE" speedFactor="1.02" vaporized=""/>
    <tripinfo id="124" depart="96.00" departLane="E5_0" departPos="5.10" departSpeed="0.00" departDelay="7.00" arrival="157.00" arrivalLane="-E1_0" arrivalPos="289.60" arrivalSpeed="11.16" duration="61.00" routeLength="594.90" waitingTime="0.00" waitingCount="0" stopTime="0.00" timeLoss="12.21" rerouteNo="0" devices="tripinfo_124 routing_124" vType="DEFAULT_VEHTYPE" speedFactor="0.89" vaporized=""/>
    <tripinfo id="90" depart="75.00" departLane="E5_0" departPos="5.10" departSpeed="0.00" departDelay="12.00" arrival="158.00" arrivalLane="E3_0" arrivalPos="289.60" arrivalSpeed="11.41" duration="83.00" routeLength="583.13" waitingTime="14.00" waitingCount="1" stopTime="0.00" timeLoss="34.73" rerouteNo="0" devices="tripinfo_90 routing_90" vType="DEFAULT_VEHTYPE" speedFactor="0.88" vaporized=""/>
    <tripinfo id="96" depart="81.00" departLane="E5_0" departPos="5.10" departSpeed="0.00" departDelay="14.00" arrival="158.00" arrivalLane="E3_1" arrivalPos="289.60" arrivalSpeed="13.46" duration="77.00" routeLength="583.13" waitingTime="14.00" waitingCount="1" stopTime="0.00" timeLoss="34.37" rerouteNo="0" devices="tripinfo_96 routing_96" vType="DEFAULT_VEHTYPE" speedFactor="1.02" vaporized=""/>
    <tripinfo id="131" depart="102.00" departLane="E5_0" departPos="5.10" departSpeed="0.00" departDelay="10.00" arrival="160.00" arrivalLane="E4_0" arrivalPos="289.60" arrivalSpeed="11.78" duration="58.00" routeLength="592.43" waitingTime="0.00" waitingCount="0" stopTime="0.00" timeLoss="9.82" rerouteNo="0" devices="tripinfo_131 routing_131" vType="DEFAULT_VEHTYPE" speedFactor="0.91" vaporized=""/>
    <tripinfo id="135" depart="105.00" departLane="E5_0" departPos="5.10" departSpeed="0.00" departDelay="11.00" arrival="162.00" arrivalLane="E3_1" arrivalPos="289.60" arrivalSpeed="13.98" duration="57.00" routeLength="583.13" waitingTime="0.00" waitingCount="0" stopTime="0.00" timeLoss="17.58" rerouteNo="0" devices="tripinfo_135 routing_135" vType="DEFAULT_VEHTYPE" speedFactor="1.10" vaporized=""/>
    <tripinfo id="142" depart="114.00" departLane="E5_0" departPos="5.10" departSpeed="0.00" departDelay="14.00" arrival="162.00" arrivalLane="E4_1" arrivalPos="289.60" arrivalSpeed="14.11" duration="48.00" routeLength="592.43" waitingTime="0.00" waitingCount="0" stopTime="0.00" timeLoss="7.11" rerouteNo="0" devices="tripinfo_142 routing_142" vType="DEFAULT_VEHTYPE" speedFactor="1.07" vaporized=""/>
    <tripinfo id="125" depart="99.00" departLane="E5_0" departPos="5.10" departSpeed="0.00" departDelay="10.00" arrival="165.00" arrivalLane="E3_0" arrivalPos="289.60" arrivalSpeed="10.31" duration="66.00" routeLength="583.13" waitingTime="0.00" waitingCount="0" stopTime="0.00" timeLoss="14.59" rerouteNo="0" devices="tripinfo_125 routing_125" vType="DEFAULT_VEHTYPE" speedFactor="0.83" vaporized=""/>
    <tripinfo id="81" depart="58.00" departLane="-E4_0" departPos="5.10" departSpeed="0.00" departDelay="0.00" arrival="170.00" arrivalLane="E3_1" arrivalPos="289.60" arrivalSpeed="13.23" duration="112.00" routeLength="594.90" waitingTime="56.00" waitingCount="1" stopTime="0.00" timeLoss="67.18" rerouteNo="0" devices="tripinfo_81 routing_81" vType="DEFAULT_VEHTYPE" speedFactor="0.97" vaporized=""/>
    <tripinfo id="97" depart="68.00" departLane="-E4_0" departPos="5.10" departSpeed="0.00" departDelay="0.00" arrival="172.00" arrivalLane="E3_1" arrivalPos="289.60" arrivalSpeed="14.16" duration="104.00" routeLength="594.90" waitingTime="48.00" waitingCount="1" stopTime="0.00" timeLoss="61.19" rerouteNo="0" devices="tripinfo_97 routing_97" vType="DEFAULT_VEHTYPE" speedFactor="1.02" vaporized=""/>
    <tripinfo id="112" depart="83.00" departLane="-E4_0" departPos="5.10" departSpeed="0.00" departDelay="2.00" arrival="173.00" arrivalLane="E3_1" arrivalPos="289.60" arrivalSpeed="12.93" duration="90.00" routeLength="594.90" waitingTime="36.00" waitingCount="1" stopTime="0.00" timeLoss="47.72" rerouteNo="0" devices="tripinfo_112 routing_112" vType="DEFAULT_VEHTYPE" speedFactor="1.02" vaporized=""/>
    <tripinfo id="121" depart="89.00" departLane="-E4_0" departPos="5.10" departSpeed="0.00" departDelay="4.00" arrival="175.00" arrivalLane="E3_1" arrivalPos="289.60" arrivalSpeed="13.36" duration="86.00" routeLength="594.90" waitingTime="32.00" waitingCount="1" stopTime="0.00" timeLoss="43.70" rerouteNo="0" devices="tripinfo_121 routing_121" vType="DEFAULT_VEHTYPE" speedFactor="1.02" vaporized=""/>
    <tripinfo id="139" depart="96.00" departLane="-E4_0" departPos="5.10" departSpeed="0.00" departDelay="0.00" arrival="177.00" arrivalLane="E3_1" arrivalPos="289.60" arrivalSpeed="12.70" duration="81.00" routeLength="594.90" waitingTime="23.00" waitingCount="1" stopTime="0.00" timeLoss="36.77" rerouteNo="0" devices="tripinfo_139 routing_139" vType="DEFAULT_VEHTYPE" speedFactor="0.97" vaporized=""/>
    <tripinfo id="159" depart="111.00" departLane="-E4_0" departPos="5.10" departSpeed="0.00" departDelay="0.00" arrival="182.00" arrivalLane="-E1_1" arrivalPos="289.60" arrivalSpeed="12.57" duration="71.00" routeLength="592.43" waitingTime="10.00" waitingCount="1" stopTime="0.00" timeLoss="23.86" rerouteNo="0" devices="tripinfo_159 routing_159" vType="DEFAULT_VEHTYPE" speedFactor="0.92" vaporized=""/>
    <tripinfo id="65" depart="51.00" departLane="-E4_0" departPos="5.10" departSpeed="0.00" departDelay="5.00" arrival="183.00" arrivalLane="-E1_0" arrivalPos="289.60" arrivalSpeed="11.79" duration="132.00" routeLength="597.32" waitingTime="71.00" waitingCount="2" stopTime="0.00" timeLoss="82.71" rerouteNo="0" devices="tripinfo_65 routing_65" vType="DEFAULT_VEHTYPE" speedFactor="0.90" vaporized=""/>
    <tripinfo id="91" depart="63.00" departLane="-E4_0" departPos="5.10" departSpeed="0.00" departDelay="0.00" arrival="184.00" arrivalLane="-E5_0" arrivalPos="289.60" arrivalSpeed="12.50" duration="121.00" routeLength="583.13" waitingTime="61.00" waitingCount="2" stopTime="0.00" timeLoss="73.62" rerouteNo="0" devices="tripinfo_91 routing_91" vType="DEFAULT_VEHTYPE" speedFactor="0.91" vaporized=""/>
    <tripinfo id="110" depart="80.00" departLane="-E4_0" departPos="5.10" departSpeed="0.00" departDelay="0.00" arrival="184.00" arrivalLane="-E1_0" arrivalPos="289.60" arrivalSpeed="12.77" duration="104.00" routeLength="597.32" waitingTime="47.00" waitingCount="2" stopTime="0.00" timeLoss="60.43" rerouteNo="0" devices="tripinfo_110 routing_110" vType="DEFAULT_VEHTYPE" speedFactor="1.00" vaporized=""/>
    <tripinfo id="163" depart="118.00" departLane="-E4_0" departPos="5.10" departSpeed="0.00" departDelay="4.00" arrival="184.00" arrivalLane="-E1_1" arrivalPos="289.60" arrivalSpeed="12.92" duration="66.00" routeLength="592.43" waitingTime="7.00" waitingCount="1" stopTime="0.00" timeLoss="21.85" rerouteNo="0" devices="tripinfo_163 routing_163" vType="DEFAULT_VEHTYPE" speedFactor="0.99" vaporized=""/>
    <tripinfo id="181" depart="128.00" departLane="-E4_0" departPos="5.10" departSpeed="0.00" departDelay="0.00" arrival="186.00" arrivalLane="-E1_1" arrivalPos="289.60" arrivalSpeed="12.08" duration="58.00" routeLength="592.43" waitingTime="0.00" waitingCount="0" stopTime="0.00" timeLoss="12.95" rerouteNo="0" devices="tripinfo_181 routing_181" vType="DEFAULT_VEHTYPE" speedFactor="0.96" vaporized=""/>
    <tripinfo id="116" depart="86.00" departLane="-E4_0" departPos="5.10" departSpeed="0.00" departDelay="3.00" arrival="187.00" arrivalLane="-E1_0" arrivalPos="289.60" arrivalSpeed="13.50" duration="101.00" routeLength="597.32" waitingTime="41.00" waitingCount="2" stopTime="0.00" timeLoss="55.85" rerouteNo="0" devices="tripinfo_116 routing_116" vType="DEFAULT_VEHTYPE" speedFactor="0.98" vaporized=""/>
    <tripinfo id="140" depart="108.00" departLane="E5_0" departPos="5.10" departSpeed="0.00" departDelay="9.00" arrival="191.00" arrivalLane="E3_0" arrivalPos="289.60" arrivalSpeed="12.65" duration="83.00" routeLength="583.13" waitingTime="21.00" waitingCount="1" stopTime="0.00" timeLoss="37.63" rerouteNo="0" devices="tripinfo_140 routing_140" vType="DEFAULT_VEHTYPE" speedFactor="0.95" vaporized=""/>
    <tripinfo id="157" depart="120.00" departLane="E5_0" departPos="5.10" departSpeed="0.00" departDelay="10.00" arrival="191.00" arrivalLane="-E1_1" arrivalPos="289.60" arrivalSpeed="13.27" duration="71.00" routeLength="594.90" waitingTime="17.00" waitingCount="1" stopTime="0.00" timeLoss="27.92" rerouteNo="0" devices="tripinfo_157 routing_157" vType="DEFAULT_VEHTYPE" speedFactor="1.01" vaporized=""/>
    <tripinfo id="158" depart="123.00" departLane="E5_0" departPos="5.10" departSpeed="0.00" departDelay="12.00" arrival="191.00" arrivalLane="E4_1" arrivalPos="289.60" arrivalSpeed="14.60" duration="68.00" routeLength="592.43" waitingTime="16.00" waitingCount="1" stopTime="0.00" timeLoss="27.98" rerouteNo="0" devices="tripinfo_158 routing_158" vType="DEFAULT_VEHTYPE" speedFactor="1.10" vaporized=""/>
    <tripinfo id="164" depart="129.00" departLane="E5_0" departPos="5.10" departSpeed="0.00" departDelay="14.00" arrival="194.00" arrivalLane="E4_1" arrivalPos="289.60" arrivalSpeed="14.31" duration="65.00" routeLength="592.43" waitingTime="11.00" waitingCount="1" stopTime="0.00" timeLoss="23.84" rerouteNo="0" devices="tripinfo_164 routing_164" vType="DEFAULT_VEHTYPE" speedFactor="1.07" vaporized=""/>