<?xml version="1.0" encoding="UTF-8"?>

<!-- generated on 2024-05-29 16:54:23 by Eclipse SUMO GUI Version 1.14.1
<configuration xmlns:xsi="http://www.w3.org/2001/XMLSchema-instance" xsi:noNamespaceSchemaLocation="http://sumo.dlr.de/xsd/sumoConfiguration.xsd">

    <input>
        <net-file value="osm.net.xml"/>
        <route-files value="osm.passenger.trips.xml"/>
        <additional-files value="osm.poly.xml"/>
    </input>

    <output>
        <tripinfo-output value="tripinfo.xml"/>
    </output>

    <processing>
        <ignore-route-errors value="true"/>
    </processing>

    <routing>
        <device.rerouting.adaptation-steps value="18"/>
        <device.rerouting.adaptation-interval value="10"/>
    </routing>

    <report>
        <verbose value="true"/>
        <duration-log.statistics value="true"/>
        <no-step-log value="true"/>
    </report>

    <traci_server>
        <remote-port value="62317"/>
    </traci_server>

    <gui_only>
        <gui-settings-file value="osm.view.xml"/>
    </gui_only>

</configuration>
-->

<tripinfos xmlns:xsi="http://www.w3.org/2001/XMLSchema-instance" xsi:noNamespaceSchemaLocation="http://sumo.dlr.de/xsd/tripinfo_file.xsd">
    <tripinfo id="veh0" depart="0.00" departLane="-E4_0" departPos="5.10" departSpeed="0.00" departDelay="0.00" arrival="50.00" arrivalLane="-E1_0" arrivalPos="289.60" arrivalSpeed="14.14" duration="50.00" routeLength="597.32" waitingTime="0.00" waitingCount="0" stopTime="0.00" timeLoss="8.35" rerouteNo="0" devices="tripinfo_veh0 routing_veh0" vType="veh_passenger" speedFactor="1.06" vaporized=""/>
    <tripinfo id="veh2" depart="12.00" departLane="E5_0" departPos="5.10" departSpeed="0.00" departDelay="0.00" arrival="60.00" arrivalLane="-E1_0" arrivalPos="289.60" arrivalSpeed="13.24" duration="48.00" routeLength="594.90" waitingTime="0.00" waitingCount="0" stopTime="0.00" timeLoss="4.93" rerouteNo="0" devices="tripinfo_veh2 routing_veh2" vType="veh_passenger" speedFactor="1.01" vaporized=""/>
    <tripinfo id="veh2.1" depart="15.00" departLane="E5_0" departPos="5.10" departSpeed="0.00" departDelay="3.00" arrival="61.00" arrivalLane="-E1_1" arrivalPos="289.60" arrivalSpeed="14.54" duration="46.00" routeLength="594.90" waitingTime="0.00" waitingCount="0" stopTime="0.00" timeLoss="5.70" rerouteNo="0" devices="tripinfo_veh2.1 routing_veh2.1" vType="veh_passenger" speedFactor="1.08" vaporized=""/>
    <tripinfo id="veh2.4" depart="24.00" departLane="E5_0" departPos="5.10" departSpeed="0.00" departDelay="12.00" arrival="74.00" arrivalLane="-E1_1" arrivalPos="289.60" arrivalSpeed="13.70" duration="50.00" routeLength="594.90" waitingTime="0.00" waitingCount="0" stopTime="0.00" timeLoss="8.90" rerouteNo="0" devices="tripinfo_veh2.4 routing_veh2.4" vType="veh_passenger" speedFactor="1.05" vaporized=""/>
    <tripinfo id="veh4" depart="24.00" departLane="-E3_0" departPos="5.10" departSpeed="0.00" departDelay="0.00" arrival="75.00" arrivalLane="-E1_0" arrivalPos="289.60" arrivalSpeed="12.73" duration="51.00" routeLength="583.13" waitingTime="0.00" waitingCount="0" stopTime="0.00" timeLoss="6.79" rerouteNo="0" devices="tripinfo_veh4 routing_veh4" vType="veh_passenger" speedFactor="0.97" vaporized=""/>
    <tripinfo id="veh2.2" depart="18.00" departLane="E5_0" departPos="5.10" departSpeed="0.00" departDelay="6.00" arrival="76.00" arrivalLane="-E1_1" arrivalPos="289.60" arrivalSpeed="13.90" duration="58.00" routeLength="594.90" waitingTime="5.00" waitingCount="1" stopTime="0.00" timeLoss="16.03" rerouteNo="0" devices="tripinfo_veh2.2 routing_veh2.2" vType="veh_passenger" speedFactor="1.03" vaporized=""/>
    <tripinfo id="veh2.5" depart="28.00" departLane="E5_0" departPos="5.10" departSpeed="0.00" departDelay="16.00" arrival="82.00" arrivalLane="-E1_0" arrivalPos="289.60" arrivalSpeed="11.78" duration="54.00" routeLength="594.90" waitingTime="0.00" waitingCount="0" stopTime="0.00" timeLoss="5.03" rerouteNo="0" devices="tripinfo_veh2.5 routing_veh2.5" vType="veh_passenger" speedFactor="0.89" vaporized=""/>
    <tripinfo id="veh2.3" depart="21.00" departLane="E5_0" departPos="5.10" departSpeed="0.00" departDelay="9.00" arrival="83.00" arrivalLane="-E1_1" arrivalPos="289.60" arrivalSpeed="11.15" duration="62.00" routeLength="594.90" waitingTime="0.00" waitingCount="0" stopTime="0.00" timeLoss="9.60" rerouteNo="0" devices="tripinfo_veh2.3 routing_veh2.3" vType="veh_passenger" speedFactor="0.83" vaporized=""/>
    <tripinfo id="veh2.6" depart="31.00" departLane="E5_0" departPos="5.10" departSpeed="0.00" departDelay="19.00" arrival="84.00" arrivalLane="-E1_1" arrivalPos="289.60" arrivalSpeed="11.91" duration="53.00" routeLength="594.90" waitingTime="0.00" waitingCount="0" stopTime="0.00" timeLoss="7.21" rerouteNo="0" devices="tripinfo_veh2.6 routing_veh2.6" vType="veh_passenger" speedFactor="0.94" vaporized=""/>
    <tripinfo id="veh2.8" depart="37.00" departLane="E5_0" departPos="5.10" departSpeed="0.00" departDelay="25.00" arrival="84.00" arrivalLane="-E1_0" arrivalPos="289.60" arrivalSpeed="14.19" duration="47.00" routeLength="594.90" waitingTime="0.00" waitingCount="0" stopTime="0.00" timeLoss="7.45" rerouteNo="0" devices="tripinfo_veh2.8 routing_veh2.8" vType="veh_passenger" speedFactor="1.09" vaporized=""/>
    <tripinfo id="veh2.9" depart="40.00" departLane="E5_0" departPos="5.10" departSpeed="0.00" departDelay="28.00" arrival="101.00" arrivalLane="-E1_1" arrivalPos="289.60" arrivalSpeed="13.13" duration="61.00" routeLength="594.90" waitingTime="8.00" waitingCount="1" stopTime="0.00" timeLoss="18.70" rerouteNo="0" devices="tripinfo_veh2.9 routing_veh2.9" vType="veh_passenger" speedFactor="1.03" vaporized=""/>
    <tripinfo id="veh6.1" depart="46.00" departLane="E5_0" departPos="5.10" departSpeed="0.00" departDelay="10.00" arrival="103.00" arrivalLane="-E1_1" arrivalPos="289.60" arrivalSpeed="14.14" duration="57.00" routeLength="594.90" waitingTime="3.00" waitingCount="1" stopTime="0.00" timeLoss="14.80" rerouteNo="0" devices="tripinfo_veh6.1 routing_veh6.1" vType="veh_passenger" speedFactor="1.04" vaporized=""/>
    <tripinfo id="veh6.3" depart="52.00" departLane="E5_0" departPos="5.10" departSpeed="0.00" departDelay="16.00" arrival="104.00" arrivalLane="-E1_1" arrivalPos="289.60" arrivalSpeed="14.12" duration="52.00" routeLength="594.90" waitingTime="1.00" waitingCount="1" stopTime="0.00" timeLoss="12.41" rerouteNo="0" devices="tripinfo_veh6.3 routing_veh6.3" vType="veh_passenger" speedFactor="1.09" vaporized=""/>
    <tripinfo id="veh2.7" depart="34.00" departLane="E5_0" departPos="5.10" departSpeed="0.00" departDelay="22.00" arrival="105.00" arrivalLane="-E1_0" arrivalPos="289.60" arrivalSpeed="11.25" duration="71.00" routeLength="594.90" waitingTime="11.00" waitingCount="1" stopTime="0.00" timeLoss="20.39" rerouteNo="0" devices="tripinfo_veh2.7 routing_veh2.7" vType="veh_passenger" speedFactor="0.86" vaporized=""/>
    <tripinfo id="veh6" depart="43.00" departLane="E5_0" departPos="5.10" departSpeed="0.00" departDelay="7.00" arrival="106.00" arrivalLane="-E1_0" arrivalPos="289.60" arrivalSpeed="14.02" duration="63.00" routeLength="594.90" waitingTime="8.00" waitingCount="1" stopTime="0.00" timeLoss="23.68" rerouteNo="0" devices="tripinfo_veh6 routing_veh6" vType="veh_passenger" speedFactor="1.09" vaporized=""/>
    <tripinfo id="veh6.2" depart="49.00" departLane="E5_0" departPos="5.10" departSpeed="0.00" departDelay="13.00" arrival="106.00" arrivalLane="-E1_1" arrivalPos="289.60" arrivalSpeed="13.24" duration="57.00" routeLength="594.90" waitingTime="2.00" waitingCount="1" stopTime="0.00" timeLoss="15.48" rerouteNo="0" devices="tripinfo_veh6.2 routing_veh6.2" vType="veh_passenger" speedFactor="1.04" vaporized=""/>
    <tripinfo id="veh6.4" depart="55.00" departLane="E5_0" departPos="5.10" departSpeed="0.00" departDelay="19.00" arrival="108.00" arrivalLane="-E1_1" arrivalPos="289.60" arrivalSpeed="12.81" duration="53.00" routeLength="594.90" waitingTime="0.00" waitingCount="0" stopTime="0.00" timeLoss="9.76" rerouteNo="0" devices="tripinfo_veh6.4 routing_veh6.4" vType="veh_passenger" speedFactor="1.00" vaporized=""/>
    <tripinfo id="veh6.5" depart="58.00" departLane="E5_0" departPos="5.10" departSpeed="0.00" departDelay="22.00" arrival="111.00" arrivalLane="-E1_0" arrivalPos="289.60" arrivalSpeed="11.31" duration="53.00" routeLength="594.90" waitingTime="0.00" waitingCount="0" stopTime="0.00" timeLoss="4.92" rerouteNo="0" devices="tripinfo_veh6.5 routing_veh6.5" vType="veh_passenger" speedFactor="0.90" vaporized=""/>
    <tripinfo id="veh6.6" depart="61.00" departLane="E5_0" departPos="5.10" departSpeed="0.00" departDelay="25.00" arrival="116.00" arrivalLane="-E1_0" arrivalPos="289.60" arrivalSpeed="11.30" duration="55.00" routeLength="594.90" waitingTime="0.00" waitingCount="0" stopTime="0.00" timeLoss="5.34" rerouteNo="0" devices="tripinfo_veh6.6 routing_veh6.6" vType="veh_passenger" speedFactor="0.88" vaporized=""/>
    <tripinfo id="veh6.9" depart="70.00" departLane="E5_0" departPos="5.10" departSpeed="0.00" departDelay="34.00" arrival="119.00" arrivalLane="-E1_1" arrivalPos="289.60" arrivalSpeed="15.23" duration="49.00" routeLength="594.90" waitingTime="0.00" waitingCount="0" stopTime="0.00" timeLoss="12.03" rerouteNo="0" devices="tripinfo_veh6.9 routing_veh6.9" vType="veh_passenger" speedFactor="1.17" vaporized=""/>
    <tripinfo id="veh6.7" depart="64.00" departLane="E5_0" departPos="5.10" departSpeed="0.00" departDelay="28.00" arrival="125.00" arrivalLane="-E1_0" arrivalPos="289.60" arrivalSpeed="10.59" duration="61.00" routeLength="594.90" waitingTime="0.00" waitingCount="0" stopTime="0.00" timeLoss="10.63" rerouteNo="0" devices="tripinfo_veh6.7 routing_veh6.7" vType="veh_passenger" speedFactor="0.85" vaporized=""/>
    <tripinfo id="veh6.8" depart="67.00" departLane="E5_0" departPos="5.10" departSpeed="0.00" departDelay="31.00" arrival="128.00" arrivalLane="-E1_0" arrivalPos="289.60" arrivalSpeed="11.19" duration="61.00" routeLength="594.90" waitingTime="0.00" waitingCount="0" stopTime="0.00" timeLoss="10.09" rerouteNo="0" devices="tripinfo_veh6.8 routing_veh6.8" vType="veh_passenger" speedFactor="0.85" vaporized=""/>
    <tripinfo id="veh4.1" depart="27.00" departLane="-E3_0" departPos="5.10" departSpeed="0.00" departDelay="3.00" arrival="130.00" arrivalLane="-E1_0" arrivalPos="289.60" arrivalSpeed="11.25" duration="103.00" routeLength="583.13" waitingTime="45.00" waitingCount="2" stopTime="0.00" timeLoss="55.14" rerouteNo="0" devices="tripinfo_veh4.1 routing_veh4.1" vType="veh_passenger" speedFactor="0.89" vaporized=""/>
    <tripinfo id="veh12" depart="72.00" departLane="E1_0" departPos="5.10" departSpeed="0.00" departDelay="0.00" arrival="142.00" arrivalLane="E4_0" arrivalPos="289.60" arrivalSpeed="13.05" duration="70.00" routeLength="583.13" waitingTime="15.00" waitingCount="1" stopTime="0.00" timeLoss="25.54" rerouteNo="0" devices="tripinfo_veh12 routing_veh12" vType="veh_passenger" speedFactor="0.97" vaporized=""/>
    <tripinfo id="veh1" depart="6.00" departLane="E1_0" departPos="5.10" departSpeed="0.00" departDelay="0.00" arrival="143.00" arrivalLane="E3_0" arrivalPos="289.60" arrivalSpeed="12.28" duration="137.00" routeLength="592.43" waitingTime="81.00" waitingCount="1" stopTime="0.00" timeLoss="90.36" rerouteNo="0" devices="tripinfo_veh1 routing_veh1" vType="veh_passenger" speedFactor="0.94" vaporized=""/>
    <tripinfo id="veh5" depart="30.00" departLane="E1_0" departPos="5.10" departSpeed="0.00" departDelay="0.00" arrival="144.00" arrivalLane="E3_1" arrivalPos="289.60" arrivalSpeed="13.67" duration="114.00" routeLength="592.43" waitingTime="60.00" waitingCount="1" stopTime="0.00" timeLoss="70.56" rerouteNo="0" devices="tripinfo_veh5 routing_veh5" vType="veh_passenger" speedFactor="1.01" vaporized=""/>
    <tripinfo id="veh12.1" depart="75.00" departLane="E1_0" departPos="5.10" departSpeed="0.00" departDelay="3.00" arrival="145.00" arrivalLane="E4_0" arrivalPos="289.60" arrivalSpeed="12.00" duration="70.00" routeLength="583.13" waitingTime="15.00" waitingCount="1" stopTime="0.00" timeLoss="24.58" rerouteNo="0" devices="tripinfo_veh12.1 routing_veh12.1" vType="veh_passenger" speedFactor="0.95" vaporized=""/>
    <tripinfo id="veh7" depart="73.00" departLane="E5_0" departPos="5.10" departSpeed="0.00" departDelay="31.00" arrival="146.00" arrivalLane="E3_0" arrivalPos="289.60" arrivalSpeed="13.23" duration="73.00" routeLength="583.13" waitingTime="18.00" waitingCount="1" stopTime="0.00" timeLoss="30.48" rerouteNo="0" devices="tripinfo_veh7 routing_veh7" vType="veh_passenger" speedFactor="1.02" vaporized=""/>
    <tripinfo id="veh7.1" depart="76.00" departLane="E5_0" departPos="5.10" departSpeed="0.00" departDelay="34.00" arrival="147.00" arrivalLane="E3_1" arrivalPos="289.60" arrivalSpeed="14.20" duration="71.00" routeLength="583.13" waitingTime="15.00" waitingCount="1" stopTime="0.00" timeLoss="31.18" rerouteNo="0" devices="tripinfo_veh7.1 routing_veh7.1" vType="veh_passenger" speedFactor="1.10" vaporized=""/>
    <tripinfo id="veh3.1" depart="21.00" departLane="-E4_0" departPos="5.10" departSpeed="0.00" departDelay="3.00" arrival="150.00" arrivalLane="-E1_1" arrivalPos="289.60" arrivalSpeed="14.62" duration="129.00" routeLength="592.43" waitingTime="79.00" waitingCount="1" stopTime="0.00" timeLoss="89.74" rerouteNo="0" devices="tripinfo_veh3.1 routing_veh3.1" vType="veh_passenger" speedFactor="1.12" vaporized=""/>
    <tripinfo id="veh3" depart="18.00" departLane="-E4_0" departPos="5.10" departSpeed="0.00" departDelay="0.00" arrival="151.00" arrivalLane="-E1_0" arrivalPos="289.60" arrivalSpeed="13.54" duration="133.00" routeLength="597.32" waitingTime="81.00" waitingCount="1" stopTime="0.00" timeLoss="91.29" rerouteNo="0" devices="tripinfo_veh3 routing_veh3" vType="veh_passenger" speedFactor="1.05" vaporized=""/>
    <tripinfo id="veh3.2" depart="24.00" departLane="-E4_0" departPos="5.10" departSpeed="0.00" departDelay="6.00" arrival="155.00" arrivalLane="-E1_0" arrivalPos="289.60" arrivalSpeed="13.31" duration="131.00" routeLength="597.32" waitingTime="75.00" waitingCount="1" stopTime="0.00" timeLoss="86.40" rerouteNo="0" devices="tripinfo_veh3.2 routing_veh3.2" vType="veh_passenger" speedFactor="0.99" vaporized=""/>
    <tripinfo id="veh3.3" depart="28.00" departLane="-E4_0" departPos="5.10" departSpeed="0.00" departDelay="10.00" arrival="157.00" arrivalLane="-E1_1" arrivalPos="289.60" arrivalSpeed="12.75" duration="129.00" routeLength="592.43" waitingTime="70.00" waitingCount="1" stopTime="0.00" timeLoss="81.34" rerouteNo="0" devices="tripinfo_veh3.3 routing_veh3.3" vType="veh_passenger" speedFactor="0.93" vaporized=""/>
    <tripinfo id="veh16" depart="96.00" departLane="-E3_0" departPos="5.10" departSpeed="0.00" departDelay="0.00" arrival="158.00" arrivalLane="-E5_1" arrivalPos="289.60" arrivalSpeed="12.67" duration="62.00" routeLength="592.43" waitingTime="5.00" waitingCount="1" stopTime="0.00" timeLoss="15.26" rerouteNo="0" devices="tripinfo_veh16 routing_veh16" vType="veh_passenger" speedFactor="0.94" vaporized=""/>
    <tripinfo id="veh16.1" depart="99.00" departLane="-E3_0" departPos="5.10" departSpeed="0.00" departDelay="3.00" arrival="158.00" arrivalLane="-E5_0" arrivalPos="289.60" arrivalSpeed="14.77" duration="59.00" routeLength="592.43" waitingTime="5.00" waitingCount="1" stopTime="0.00" timeLoss="20.58" rerouteNo="0" devices="tripinfo_veh16.1 routing_veh16.1" vType="veh_passenger" speedFactor="1.13" vaporized=""/>
    <tripinfo id="veh4.2" depart="30.00" departLane="-E3_0" departPos="5.10" departSpeed="0.00" departDelay="6.00" arrival="162.00" arrivalLane="-E1_0" arrivalPos="289.60" arrivalSpeed="11.20" duration="132.00" routeLength="583.13" waitingTime="64.00" waitingCount="2" stopTime="0.00" timeLoss="80.29" rerouteNo="0" devices="tripinfo_veh4.2 routing_veh4.2" vType="veh_passenger" speedFactor="0.83" vaporized=""/>
    <tripinfo id="veh5.1" depart="33.00" departLane="E1_0" departPos="5.10" departSpeed="0.00" departDelay="3.00" arrival="164.00" arrivalLane="E3_1" arrivalPos="289.60" arrivalSpeed="16.25" duration="131.00" routeLength="592.43" waitingTime="76.00" waitingCount="2" stopTime="0.00" timeLoss="93.43" rerouteNo="0" devices="tripinfo_veh5.1 routing_veh5.1" vType="veh_passenger" speedFactor="1.17" vaporized=""/>
    <tripinfo id="veh5.2" depart="36.00" departLane="E1_0" departPos="5.10" departSpeed="0.00" departDelay="6.00" arrival="169.00" arrivalLane="E3_1" arrivalPos="289.60" arrivalSpeed="13.02" duration="133.00" routeLength="592.43" waitingTime="73.00" waitingCount="2" stopTime="0.00" timeLoss="88.81" rerouteNo="0" devices="tripinfo_veh5.2 routing_veh5.2" vType="veh_passenger" speedFactor="0.99" vaporized=""/>
    <tripinfo id="veh12.2" depart="78.00" departLane="E1_0" departPos="5.10" departSpeed="0.00" departDelay="6.00" arrival="169.00" arrivalLane="E4_0" arrivalPos="289.60" arrivalSpeed="12.14" duration="91.00" routeLength="583.13" waitingTime="30.00" waitingCount="2" stopTime="0.00" timeLoss="42.72" rerouteNo="0" devices="tripinfo_veh12.2 routing_veh12.2" vType="veh_passenger" speedFactor="0.89" vaporized=""/>
    <tripinfo id="veh12.4" depart="84.00" departLane="E1_0" departPos="5.10" departSpeed="0.00" departDelay="12.00" arrival="169.00" arrivalLane="E4_1" arrivalPos="289.60" arrivalSpeed="13.86" duration="85.00" routeLength="583.13" waitingTime="24.00" waitingCount="2" stopTime="0.00" timeLoss="42.07" rerouteNo="0" devices="tripinfo_veh12.4 routing_veh12.4" vType="veh_passenger" speedFactor="1.01" vaporized=""/>
    <tripinfo id="veh3.5" depart="34.00" departLane="-E4_0" departPos="5.10" departSpeed="0.00" departDelay="16.00" arrival="174.00" arrivalLane="-E1_0" arrivalPos="289.60" arrivalSpeed="12.67" duration="140.00" routeLength="592.43" waitingTime="79.00" waitingCount="2" stopTime="0.00" timeLoss="93.05" rerouteNo="0" devices="tripinfo_veh3.5 routing_veh3.5" vType="veh_passenger" speedFactor="0.94" vaporized=""/>
    <tripinfo id="veh3.7" depart="40.00" departLane="-E4_0" departPos="5.10" departSpeed="0.00" departDelay="22.00" arrival="175.00" arrivalLane="-E1_1" arrivalPos="289.60" arrivalSpeed="15.75" duration="135.00" routeLength="592.43" waitingTime="74.00" waitingCount="2" stopTime="0.00" timeLoss="96.85" rerouteNo="0" devices="tripinfo_veh3.7 routing_veh3.7" vType="veh_passenger" speedFactor="1.16" vaporized=""/>
    <tripinfo id="veh3.4" depart="31.00" departLane="-E4_0" departPos="5.10" departSpeed="0.00" departDelay="13.00" arrival="176.00" arrivalLane="-E1_0" arrivalPos="289.60" arrivalSpeed="11.70" duration="145.00" routeLength="597.32" waitingTime="82.00" waitingCount="2" stopTime="0.00" timeLoss="94.85" rerouteNo="0" devices="tripinfo_veh3.4 routing_veh3.4" vType="veh_passenger" speedFactor="0.88" vaporized=""/>
    <tripinfo id="veh3.6" depart="37.00" departLane="-E4_0" departPos="5.10" departSpeed="0.00" departDelay="19.00" arrival="177.00" arrivalLane="-E1_1" arrivalPos="289.60" arrivalSpeed="12.68" duration="140.00" routeLength="597.32" waitingTime="76.00" waitingCount="2" stopTime="0.00" timeLoss="93.40" rerouteNo="0" devices="tripinfo_veh3.6 routing_veh3.6" vType="veh_passenger" speedFactor="0.94" vaporized=""/>
    <tripinfo id="veh16.3" depart="104.00" departLane="-E3_0" departPos="5.10" departSpeed="0.00" departDelay="8.00" arrival="194.00" arrivalLane="-E5_1" arrivalPos="289.60" arrivalSpeed="15.26" duration="90.00" routeLength="592.43" waitingTime="34.00" waitingCount="2" stopTime="0.00" timeLoss="51.59" rerouteNo="0" devices="tripinfo_veh16.3 routing_veh16.3" vType="veh_passenger" speedFactor="1.14" vaporized=""/>
    <tripinfo id="veh4.3" depart="33.00" departLane="-E3_0" departPos="5.10" departSpeed="0.00" departDelay="9.00" arrival="200.00" arrivalLane="-E1_0" arrivalPos="289.60" arrivalSpeed="11.61" duration="167.00" routeLength="583.13" waitingTime="94.00" waitingCount="3" stopTime="0.00" timeLoss="117.69" rerouteNo="0" devices="tripinfo_veh4.3 routing_veh4.3" vType="veh_passenger" speedFactor="0.87" vaporized=""/>
    <tripinfo id="veh4.4" depart="36.00" departLane="-E3_0" departPos="5.10" departSpeed="0.00" departDelay="12.00" arrival="202.00" arrivalLane="-E1_0" arrivalPos="289.60" arrivalSpeed="11.61" duration="166.00" routeLength="583.13" waitingTime="92.00" waitingCount="3" stopTime="0.00" timeLoss="118.54" rerouteNo="0" devices="tripinfo_veh4.4 routing_veh4.4" vType="veh_passenger" speedFactor="0.92" vaporized=""/>
    <tripinfo id="veh16.2" depart="102.00" departLane="-E3_0" departPos="5.10" departSpeed="0.00" departDelay="6.00" arrival="208.00" arrivalLane="-E5_0" arrivalPos="289.60" arrivalSpeed="10.10" duration="106.00" routeLength="592.43" waitingTime="32.00" waitingCount="2" stopTime="0.00" timeLoss="46.26" rerouteNo="0" devices="tripinfo_veh16.2 routing_veh16.2" vType="veh_passenger" speedFactor="0.73" vaporized=""/>
    <tripinfo id="veh12.5" depart="87.00" departLane="E1_0" departPos="5.10" departSpeed="0.00" departDelay="15.00" arrival="215.00" arrivalLane="E4_0" arrivalPos="289.60" arrivalSpeed="14.06" duration="128.00" routeLength="583.13" waitingTime="67.00" waitingCount="3" stopTime="0.00" timeLoss="86.85" rerouteNo="0" devices="tripinfo_veh12.5 routing_veh12.5" vType="veh_passenger" speedFactor="1.03" vaporized=""/>
    <tripinfo id="veh5.3" depart="39.00" departLane="E1_0" departPos="5.10" departSpeed="0.00" departDelay="9.00" arrival="216.00" arrivalLane="E3_1" arrivalPos="289.60" arrivalSpeed="13.61" duration="177.00" routeLength="592.43" waitingTime="113.00" waitingCount="3" stopTime="0.00" timeLoss="134.62" rerouteNo="0" devices="tripinfo_veh5.3 routing_veh5.3" vType="veh_passenger" speedFactor="1.02" vaporized=""/>
    <tripinfo id="veh12.6" depart="90.00" departLane="E1_0" departPos="5.10" departSpeed="0.00" departDelay="18.00" arrival="218.00" arrivalLane="E4_0" arrivalPos="289.60" arrivalSpeed="14.01" duration="128.00" routeLength="583.13" waitingTime="63.00" waitingCount="3" stopTime="0.00" timeLoss="87.14" rerouteNo="0" devices="tripinfo_veh12.6 routing_veh12.6" vType="veh_passenger" speedFactor="1.06" vaporized=""/>
    <tripinfo id="veh5.4" depart="42.00" departLane="E1_0" departPos="5.10" departSpeed="0.00" departDelay="12.00" arrival="220.00" arrivalLane="E3_1" arrivalPos="289.60" arrivalSpeed="12.45" duration="178.00" routeLength="592.43" waitingTime="109.00" waitingCount="3" stopTime="0.00" timeLoss="133.28" rerouteNo="0" devices="tripinfo_veh5.4 routing_veh5.4" vType="veh_passenger" speedFactor="0.97" vaporized=""/>
    <tripinfo id="veh7.2" depart="79.00" departLane="E5_0" departPos="5.10" departSpeed="0.00" departDelay="37.00" arrival="221.00" arrivalLane="E3_0" arrivalPos="289.60" arrivalSpeed="13.10" duration="142.00" routeLength="583.13" waitingTime="82.00" waitingCount="2" stopTime="0.00" timeLoss="99.44" rerouteNo="0" devices="tripinfo_veh7.2 routing_veh7.2" vType="veh_passenger" speedFactor="1.00" vaporized=""/>
    <tripinfo id="veh7.3" depart="82.00" departLane="E5_0" departPos="5.10" departSpeed="0.00" departDelay="40.00" arrival="224.00" arrivalLane="E3_0" arrivalPos="289.60" arrivalSpeed="13.70" duration="142.00" routeLength="583.13" waitingTime="80.00" waitingCount="2" stopTime="0.00" timeLoss="99.02" rerouteNo="0" devices="tripinfo_veh7.3 routing_veh7.3" vType="veh_passenger" speedFactor="1.00" vaporized=""/>
    <tripinfo id="veh7.5" depart="88.00" departLane="E5_0" departPos="5.10" departSpeed="0.00" departDelay="46.00" arrival="231.00" arrivalLane="E3_1" arrivalPos="289.60" arrivalSpeed="15.86" duration="143.00" routeLength="583.13" waitingTime="77.00" waitingCount="2" stopTime="0.00" timeLoss="104.93" rerouteNo="0" devices="tripinfo_veh7.5 routing_veh7.5" vType="veh_passenger" speedFactor="1.14" vaporized=""/>
    <tripinfo id="veh7.4" depart="85.00" departLane="E5_0" departPos="5.10" departSpeed="0.00" departDelay="43.00" arrival="234.00" arrivalLane="E3_0" arrivalPos="289.60" arrivalSpeed="11.85" duration="149.00" routeLength="583.13" waitingTime="77.00" waitingCount="3" stopTime="0.00" timeLoss="100.90" rerouteNo="0" devices="tripinfo_veh7.4 routing_veh7.4" vType="veh_passenger" speedFactor="0.90" vaporized=""/>
    <tripinfo id="veh4.6" depart="42.00" departLane="-E3_0" departPos="5.10" departSpeed="0.00" departDelay="18.00" arrival="241.00" arrivalLane="-E1_1" arrivalPos="289.60" arrivalSpeed="15.72" duration="199.00" routeLength="583.13" waitingTime="124.00" waitingCount="4" stopTime="0.00" timeLoss="160.83" rerouteNo="0" devices="tripinfo_veh4.6 routing_veh4.6" vType="veh_passenger" speedFactor="1.13" vaporized=""/>
    <tripinfo id="veh4.5" depart="39.00" departLane="-E3_0" departPos="5.10" departSpeed="0.00" departDelay="15.00" arrival="242.00" arrivalLane="-E1_0" arrivalPos="289.60" arrivalSpeed="12.90" duration="203.00" routeLength="583.13" waitingTime="128.00" waitingCount="4" stopTime="0.00" timeLoss="157.77" rerouteNo="0" devices="tripinfo_veh4.5 routing_veh4.5" vType="veh_passenger" speedFactor="0.95" vaporized=""/>
    <tripinfo id="veh16.4" depart="108.00" departLane="-E3_0" departPos="5.10" departSpeed="0.00" departDelay="12.00" arrival="244.00" arrivalLane="-E5_0" arrivalPos="289.60" arrivalSpeed="12.15" duration="136.00" routeLength="592.43" waitingTime="67.00" waitingCount="2" stopTime="0.00" timeLoss="87.14" rerouteNo="0" devices="tripinfo_veh16.4 routing_veh16.4" vType="veh_passenger" speedFactor="0.89" vaporized=""/>
    <tripinfo id="veh16.5" depart="111.00" departLane="-E3_0" departPos="5.10" departSpeed="0.00" departDelay="15.00" arrival="245.00" arrivalLane="-E5_1" arrivalPos="289.60" arrivalSpeed="13.37" duration="134.00" routeLength="592.43" waitingTime="64.00" waitingCount="2" stopTime="0.00" timeLoss="89.93" rerouteNo="0" devices="tripinfo_veh16.5 routing_veh16.5" vType="veh_passenger" speedFactor="1.00" vaporized=""/>
    <tripinfo id="veh7.6" depart="91.00" departLane="E5_0" departPos="5.10" departSpeed="0.00" departDelay="49.00" arrival="251.00" arrivalLane="E3_0" arrivalPos="289.60" arrivalSpeed="13.86" duration="160.00" routeLength="583.13" waitingTime="86.00" waitingCount="3" stopTime="0.00" timeLoss="118.08" rerouteNo="0" devices="tripinfo_veh7.6 routing_veh7.6" vType="veh_passenger" speedFactor="1.02" vaporized=""/>
    <tripinfo id="veh5.5" depart="46.00" departLane="E1_0" departPos="5.10" departSpeed="0.00" departDelay="16.00" arrival="253.00" arrivalLane="E3_1" arrivalPos="289.60" arrivalSpeed="16.10" duration="207.00" routeLength="592.43" waitingTime="136.00" waitingCount="4" stopTime="0.00" timeLoss="170.16" rerouteNo="0" devices="tripinfo_veh5.5 routing_veh5.5" vType="veh_passenger" speedFactor="1.18" vaporized=""/>
    <tripinfo id="veh7.7" depart="94.00" departLane="E5_0" departPos="5.10" departSpeed="0.00" departDelay="52.00" arrival="255.00" arrivalLane="E3_0" arrivalPos="289.60" arrivalSpeed="12.30" duration="161.00" routeLength="583.13" waitingTime="82.00" waitingCount="3" stopTime="0.00" timeLoss="116.51" rerouteNo="0" devices="tripinfo_veh7.7 routing_veh7.7" vType="veh_passenger" speedFactor="0.97" vaporized=""/>
    <tripinfo id="veh12.3" depart="81.00" departLane="E1_0" departPos="5.10" departSpeed="0.00" departDelay="9.00" arrival="255.00" arrivalLane="E4_0" arrivalPos="289.60" arrivalSpeed="14.81" duration="174.00" routeLength="583.13" waitingTime="98.00" waitingCount="5" stopTime="0.00" timeLoss="134.00" rerouteNo="0" devices="tripinfo_veh12.3 routing_veh12.3" vType="veh_passenger" speedFactor="1.07" vaporized=""/>
    <tripinfo id="veh5.6" depart="49.00" departLane="E1_0" departPos="5.10" departSpeed="0.00" departDelay="19.00" arrival="256.00" arrivalLane="E3_1" arrivalPos="289.60" arrivalSpeed="14.14" duration="207.00" routeLength="592.43" waitingTime="135.00" waitingCount="4" stopTime="0.00" timeLoss="167.66" rerouteNo="0" devices="tripinfo_veh5.6 routing_veh5.6" vType="veh_passenger" speedFactor="1.10" vaporized=""/>
    <tripinfo id="veh12.7" depart="93.00" departLane="E1_0" departPos="5.10" departSpeed="0.00" departDelay="21.00" arrival="260.00" arrivalLane="E4_0" arrivalPos="289.60" arrivalSpeed="12.94" duration="167.00" routeLength="583.13" waitingTime="86.00" waitingCount="4" stopTime="0.00" timeLoss="121.81" rerouteNo="0" devices="tripinfo_veh12.7 routing_veh12.7" vType="veh_passenger" speedFactor="0.96" vaporized=""/>
    <tripinfo id="veh7.8" depart="97.00" departLane="E5_0" departPos="5.10" departSpeed="0.00" departDelay="55.00" arrival="275.00" arrivalLane="E3_0" arrivalPos="289.60" arrivalSpeed="14.95" duration="178.00" routeLength="583.13" waitingTime="97.00" waitingCount="4" stopTime="0.00" timeLoss="137.83" rerouteNo="0" devices="tripinfo_veh7.8 routing_veh7.8" vType="veh_passenger" speedFactor="1.08" vaporized=""/>
    <tripinfo id="veh7.9" depart="100.00" departLane="E5_0" departPos="5.10" departSpeed="0.00" departDelay="58.00" arrival="276.00" arrivalLane="E3_1" arrivalPos="289.60" arrivalSpeed="14.48" duration="176.00" routeLength="583.13" waitingTime="94.00" waitingCount="4" stopTime="0.00" timeLoss="137.58" rerouteNo="0" devices="tripinfo_veh7.9 routing_veh7.9" vType="veh_passenger" speedFactor="1.12" vaporized=""/>
    <tripinfo id="veh12.8" depart="96.00" departLane="E1_0" departPos="5.10" departSpeed="0.00" departDelay="24.00" arrival="288.00" arrivalLane="E4_0" arrivalPos="289.60" arrivalSpeed="12.19" duration="192.00" routeLength="583.13" waitingTime="106.00" waitingCount="5" stopTime="0.00" timeLoss="145.84" rerouteNo="0" devices="tripinfo_veh12.8 routing_veh12.8" vType="veh_passenger" speedFactor="0.93" vaporized=""/>