<?xml version="1.0" encoding="UTF-8"?>

<!-- generated on 2024-05-30 01:36:36 by Eclipse SUMO sumo Version 1.14.1
<configuration xmlns:xsi="http://www.w3.org/2001/XMLSchema-instance" xsi:noNamespaceSchemaLocation="http://sumo.dlr.de/xsd/sumoConfiguration.xsd">

    <input>
        <net-file value="osm.net.xml"/>
        <route-files value="osm.passenger.trips.xml"/>
    </input>

    <output>
        <tripinfo-output value="tripinfo.xml"/>
    </output>

    <traci_server>
        <remote-port value="49156"/>
    </traci_server>

    <gui_only>
        <gui-settings-file value="osm.view.xml"/>
    </gui_only>

</configuration>
-->

<tripinfos xmlns:xsi="http://www.w3.org/2001/XMLSchema-instance" xsi:noNamespaceSchemaLocation="http://sumo.dlr.de/xsd/tripinfo_file.xsd">
    <tripinfo id="1" depart="1.00" departLane="E1_0" departPos="5.10" departSpeed="0.00" departDelay="0.00" arrival="60.00" arrivalLane="E3_0" arrivalPos="289.60" arrivalSpeed="12.43" duration="59.00" routeLength="592.43" waitingTime="3.00" waitingCount="1" stopTime="0.00" timeLoss="12.46" rerouteNo="0" devices="tripinfo_1 routing_1" vType="DEFAULT_VEHTYPE" speedFactor="0.94" vaporized=""/>
    <tripinfo id="10" depart="10.00" departLane="E1_0" departPos="5.10" departSpeed="0.00" departDelay="0.00" arrival="66.00" arrivalLane="E3_0" arrivalPos="289.60" arrivalSpeed="11.98" duration="56.00" routeLength="592.43" waitingTime="0.00" waitingCount="0" stopTime="0.00" timeLoss="7.03" rerouteNo="0" devices="tripinfo_10 routing_10" vType="DEFAULT_VEHTYPE" speedFactor="0.89" vaporized=""/>
    <tripinfo id="14" depart="16.00" departLane="-E4_0" departPos="5.10" departSpeed="0.00" departDelay="2.00" arrival="69.00" arrivalLane="-E1_1" arrivalPos="289.60" arrivalSpeed="14.40" duration="53.00" routeLength="592.43" waitingTime="1.00" waitingCount="1" stopTime="0.00" timeLoss="12.78" rerouteNo="0" devices="tripinfo_14 routing_14" vType="DEFAULT_VEHTYPE" speedFactor="1.09" vaporized=""/>
    <tripinfo id="7" depart="7.00" departLane="-E4_0" departPos="5.10" departSpeed="0.00" departDelay="0.00" arrival="71.00" arrivalLane="-E1_0" arrivalPos="289.60" arrivalSpeed="13.06" duration="64.00" routeLength="597.32" waitingTime="9.00" waitingCount="1" stopTime="0.00" timeLoss="20.99" rerouteNo="0" devices="tripinfo_7 routing_7" vType="DEFAULT_VEHTYPE" speedFactor="1.03" vaporized=""/>
    <tripinfo id="12" depart="13.00" departLane="E1_0" departPos="5.10" departSpeed="0.00" departDelay="1.00" arrival="71.00" arrivalLane="E4_0" arrivalPos="289.60" arrivalSpeed="11.20" duration="58.00" routeLength="583.13" waitingTime="0.00" waitingCount="0" stopTime="0.00" timeLoss="7.20" rerouteNo="0" devices="tripinfo_12 routing_12" vType="DEFAULT_VEHTYPE" speedFactor="0.86" vaporized=""/>
    <tripinfo id="11" depart="13.00" departLane="-E4_0" departPos="5.10" departSpeed="0.00" departDelay="2.00" arrival="75.00" arrivalLane="E3_0" arrivalPos="289.60" arrivalSpeed="12.99" duration="62.00" routeLength="594.90" waitingTime="1.00" waitingCount="1" stopTime="0.00" timeLoss="15.82" rerouteNo="0" devices="tripinfo_11 routing_11" vType="DEFAULT_VEHTYPE" speedFactor="0.94" vaporized=""/>
    <tripinfo id="24" depart="24.00" departLane="-E4_0" departPos="5.10" departSpeed="0.00" departDelay="0.00" arrival="77.00" arrivalLane="E3_1" arrivalPos="289.60" arrivalSpeed="12.68" duration="53.00" routeLength="594.90" waitingTime="0.00" waitingCount="0" stopTime="0.00" timeLoss="6.45" rerouteNo="0" devices="tripinfo_24 routing_24" vType="DEFAULT_VEHTYPE" speedFactor="0.94" vaporized=""/>
    <tripinfo id="16" depart="19.00" departLane="-E4_0" departPos="5.10" departSpeed="0.00" departDelay="3.00" arrival="78.00" arrivalLane="-E5_0" arrivalPos="289.60" arrivalSpeed="13.94" duration="59.00" routeLength="583.13" waitingTime="3.00" waitingCount="2" stopTime="0.00" timeLoss="18.24" rerouteNo="0" devices="tripinfo_16 routing_16" vType="DEFAULT_VEHTYPE" speedFactor="1.05" vaporized=""/>
    <tripinfo id="8" depart="10.00" departLane="-E4_0" departPos="5.10" departSpeed="0.00" departDelay="2.00" arrival="82.00" arrivalLane="-E1_0" arrivalPos="289.60" arrivalSpeed="11.32" duration="72.00" routeLength="597.32" waitingTime="7.00" waitingCount="2" stopTime="0.00" timeLoss="19.46" rerouteNo="0" devices="tripinfo_8 routing_8" vType="DEFAULT_VEHTYPE" speedFactor="0.83" vaporized=""/>
    <tripinfo id="43" depart="43.00" departLane="-E4_0" departPos="5.10" departSpeed="0.00" departDelay="0.00" arrival="88.00" arrivalLane="-E1_0" arrivalPos="289.60" arrivalSpeed="15.93" duration="45.00" routeLength="597.32" waitingTime="0.00" waitingCount="0" stopTime="0.00" timeLoss="7.21" rerouteNo="0" devices="tripinfo_43 routing_43" vType="DEFAULT_VEHTYPE" speedFactor="1.15" vaporized=""/>
    <tripinfo id="9" depart="9.00" departLane="E5_0" departPos="5.10" departSpeed="0.00" departDelay="0.00" arrival="101.00" arrivalLane="E3_0" arrivalPos="289.60" arrivalSpeed="14.12" duration="92.00" routeLength="583.13" waitingTime="39.00" waitingCount="1" stopTime="0.00" timeLoss="50.82" rerouteNo="0" devices="tripinfo_9 routing_9" vType="DEFAULT_VEHTYPE" speedFactor="1.05" vaporized=""/>
    <tripinfo id="21" depart="21.00" departLane="E5_0" departPos="5.10" departSpeed="0.00" departDelay="0.00" arrival="104.00" arrivalLane="E4_0" arrivalPos="289.60" arrivalSpeed="12.27" duration="83.00" routeLength="592.43" waitingTime="27.00" waitingCount="1" stopTime="0.00" timeLoss="36.37" rerouteNo="0" devices="tripinfo_21 routing_21" vType="DEFAULT_VEHTYPE" speedFactor="0.93" vaporized=""/>
    <tripinfo id="42" depart="42.00" departLane="E5_0" departPos="5.10" departSpeed="0.00" departDelay="0.00" arrival="105.00" arrivalLane="E4_1" arrivalPos="289.60" arrivalSpeed="16.26" duration="63.00" routeLength="592.43" waitingTime="10.00" waitingCount="1" stopTime="0.00" timeLoss="25.32" rerouteNo="0" devices="tripinfo_42 routing_42" vType="DEFAULT_VEHTYPE" speedFactor="1.18" vaporized=""/>
    <tripinfo id="44" depart="45.00" departLane="E5_0" departPos="5.10" departSpeed="0.00" departDelay="1.00" arrival="106.00" arrivalLane="-E1_0" arrivalPos="289.60" arrivalSpeed="13.66" duration="61.00" routeLength="594.90" waitingTime="8.00" waitingCount="1" stopTime="0.00" timeLoss="18.08" rerouteNo="0" devices="tripinfo_44 routing_44" vType="DEFAULT_VEHTYPE" speedFactor="1.01" vaporized=""/>
    <tripinfo id="36" depart="36.00" departLane="E5_0" departPos="5.10" departSpeed="0.00" departDelay="0.00" arrival="107.00" arrivalLane="E4_0" arrivalPos="289.60" arrivalSpeed="11.97" duration="71.00" routeLength="597.32" waitingTime="14.00" waitingCount="1" stopTime="0.00" timeLoss="24.36" rerouteNo="0" devices="tripinfo_36 routing_36" vType="DEFAULT_VEHTYPE" speedFactor="0.95" vaporized=""/>
    <tripinfo id="54" depart="54.00" departLane="E5_0" departPos="5.10" departSpeed="0.00" departDelay="0.00" arrival="107.00" arrivalLane="E4_1" arrivalPos="289.60" arrivalSpeed="14.87" duration="53.00" routeLength="592.43" waitingTime="0.00" waitingCount="0" stopTime="0.00" timeLoss="12.79" rerouteNo="0" devices="tripinfo_54 routing_54" vType="DEFAULT_VEHTYPE" speedFactor="1.10" vaporized=""/>
    <tripinfo id="66" depart="66.00" departLane="E5_0" departPos="5.10" departSpeed="0.00" departDelay="0.00" arrival="117.00" arrivalLane="E4_0" arrivalPos="289.60" arrivalSpeed="13.32" duration="51.00" routeLength="597.32" waitingTime="0.00" waitingCount="0" stopTime="0.00" timeLoss="6.28" rerouteNo="0" devices="tripinfo_66 routing_66" vType="DEFAULT_VEHTYPE" speedFactor="1.00" vaporized=""/>
    <tripinfo id="67" depart="69.00" departLane="E5_0" departPos="5.10" departSpeed="0.00" departDelay="2.00" arrival="122.00" arrivalLane="-E1_0" arrivalPos="289.60" arrivalSpeed="12.11" duration="53.00" routeLength="594.90" waitingTime="0.00" waitingCount="0" stopTime="0.00" timeLoss="5.27" rerouteNo="0" devices="tripinfo_67 routing_67" vType="DEFAULT_VEHTYPE" speedFactor="0.90" vaporized=""/>
    <tripinfo id="0" depart="0.00" departLane="-E3_0" departPos="5.10" departSpeed="0.00" departDelay="0.00" arrival="124.00" arrivalLane="-E5_0" arrivalPos="289.60" arrivalSpeed="13.73" duration="124.00" routeLength="597.32" waitingTime="72.00" waitingCount="1" stopTime="0.00" timeLoss="82.23" rerouteNo="0" devices="tripinfo_0 routing_0" vType="DEFAULT_VEHTYPE" speedFactor="1.06" vaporized=""/>
    <tripinfo id="2" depart="3.00" departLane="-E3_0" departPos="5.10" departSpeed="0.00" departDelay="1.00" arrival="124.00" arrivalLane="-E5_1" arrivalPos="289.60" arrivalSpeed="13.23" duration="121.00" routeLength="592.43" waitingTime="67.00" waitingCount="1" stopTime="0.00" timeLoss="78.20" rerouteNo="0" devices="tripinfo_2 routing_2" vType="DEFAULT_VEHTYPE" speedFactor="1.01" vaporized=""/>
    <tripinfo id="6" depart="6.00" departLane="-E3_0" departPos="5.10" departSpeed="0.00" departDelay="0.00" arrival="125.00" arrivalLane="E4_0" arrivalPos="289.60" arrivalSpeed="14.28" duration="119.00" routeLength="594.90" waitingTime="68.00" waitingCount="1" stopTime="0.00" timeLoss="79.38" rerouteNo="0" devices="tripinfo_6 routing_6" vType="DEFAULT_VEHTYPE" speedFactor="1.08" vaporized=""/>
    <tripinfo id="15" depart="15.00" departLane="-E3_0" departPos="5.10" departSpeed="0.00" departDelay="0.00" arrival="126.00" arrivalLane="-E5_1" arrivalPos="289.60" arrivalSpeed="13.10" duration="111.00" routeLength="592.43" waitingTime="56.00" waitingCount="1" stopTime="0.00" timeLoss="68.52" rerouteNo="0" devices="tripinfo_15 routing_15" vType="DEFAULT_VEHTYPE" speedFactor="1.03" vaporized=""/>
    <tripinfo id="28" depart="28.00" departLane="-E3_0" departPos="5.10" departSpeed="0.00" departDelay="0.00" arrival="131.00" arrivalLane="E4_1" arrivalPos="289.60" arrivalSpeed="13.39" duration="103.00" routeLength="594.90" waitingTime="48.00" waitingCount="1" stopTime="0.00" timeLoss="60.38" rerouteNo="0" devices="tripinfo_28 routing_28" vType="DEFAULT_VEHTYPE" speedFactor="1.02" vaporized=""/>
    <tripinfo id="22" depart="22.00" departLane="-E3_0" departPos="5.10" departSpeed="0.00" departDelay="0.00" arrival="133.00" arrivalLane="-E5_0" arrivalPos="289.60" arrivalSpeed="11.12" duration="111.00" routeLength="592.43" waitingTime="49.00" waitingCount="1" stopTime="0.00" timeLoss="61.17" rerouteNo="0" devices="tripinfo_22 routing_22" vType="DEFAULT_VEHTYPE" speedFactor="0.88" vaporized=""/>
    <tripinfo id="76" depart="78.00" departLane="E5_0" departPos="5.10" departSpeed="0.00" departDelay="2.00" arrival="136.00" arrivalLane="-E1_1" arrivalPos="289.60" arrivalSpeed="13.85" duration="58.00" routeLength="594.90" waitingTime="4.00" waitingCount="1" stopTime="0.00" timeLoss="15.78" rerouteNo="0" devices="tripinfo_76 routing_76" vType="DEFAULT_VEHTYPE" speedFactor="1.02" vaporized=""/>
    <tripinfo id="86" depart="86.00" departLane="E5_0" departPos="5.10" departSpeed="0.00" departDelay="0.00" arrival="139.00" arrivalLane="E4_0" arrivalPos="289.60" arrivalSpeed="12.88" duration="53.00" routeLength="592.43" waitingTime="0.00" waitingCount="0" stopTime="0.00" timeLoss="8.25" rerouteNo="0" devices="tripinfo_86 routing_86" vType="DEFAULT_VEHTYPE" speedFactor="0.97" vaporized=""/>
    <tripinfo id="71" depart="72.00" departLane="E5_0" departPos="5.10" departSpeed="0.00" departDelay="1.00" arrival="144.00" arrivalLane="E4_0" arrivalPos="289.60" arrivalSpeed="11.49" duration="72.00" routeLength="597.32" waitingTime="7.00" waitingCount="1" stopTime="0.00" timeLoss="20.08" rerouteNo="0" devices="tripinfo_71 routing_71" vType="DEFAULT_VEHTYPE" speedFactor="0.85" vaporized=""/>
    <tripinfo id="73" depart="75.00" departLane="E5_0" departPos="5.10" departSpeed="0.00" departDelay="2.00" arrival="145.00" arrivalLane="E3_0" arrivalPos="289.60" arrivalSpeed="10.92" duration="70.00" routeLength="583.13" waitingTime="6.00" waitingCount="1" stopTime="0.00" timeLoss="19.02" rerouteNo="0" devices="tripinfo_73 routing_73" vType="DEFAULT_VEHTYPE" speedFactor="0.85" vaporized=""/>
    <tripinfo id="95" depart="95.00" departLane="E5_0" departPos="5.10" departSpeed="0.00" departDelay="0.00" arrival="147.00" arrivalLane="-E1_0" arrivalPos="289.60" arrivalSpeed="11.98" duration="52.00" routeLength="594.90" waitingTime="0.00" waitingCount="0" stopTime="0.00" timeLoss="4.72" rerouteNo="0" devices="tripinfo_95 routing_95" vType="DEFAULT_VEHTYPE" speedFactor="0.91" vaporized=""/>
    <tripinfo id="102" depart="102.00" departLane="E5_0" departPos="5.10" departSpeed="0.00" departDelay="0.00" arrival="151.00" arrivalLane="E4_0" arrivalPos="289.60" arrivalSpeed="13.68" duration="49.00" routeLength="597.32" waitingTime="0.00" waitingCount="0" stopTime="0.00" timeLoss="6.80" rerouteNo="0" devices="tripinfo_102 routing_102" vType="DEFAULT_VEHTYPE" speedFactor="1.06" vaporized=""/>
    <tripinfo id="103" depart="105.00" departLane="E5_0" departPos="5.10" departSpeed="0.00" departDelay="2.00" arrival="155.00" arrivalLane="-E1_0" arrivalPos="289.60" arrivalSpeed="12.79" duration="50.00" routeLength="594.90" waitingTime="0.00" waitingCount="0" stopTime="0.00" timeLoss="4.76" rerouteNo="0" devices="tripinfo_103 routing_103" vType="DEFAULT_VEHTYPE" speedFactor="0.96" vaporized=""/>
    <tripinfo id="106" depart="108.00" departLane="E5_0" departPos="5.10" departSpeed="0.00" departDelay="2.00" arrival="159.00" arrivalLane="E4_0" arrivalPos="289.60" arrivalSpeed="12.73" duration="51.00" routeLength="597.32" waitingTime="0.00" waitingCount="0" stopTime="0.00" timeLoss="6.28" rerouteNo="0" devices="tripinfo_106 routing_106" vType="DEFAULT_VEHTYPE" speedFactor="0.98" vaporized=""/>
    <tripinfo id="107" depart="111.00" departLane="E5_0" departPos="5.10" departSpeed="0.00" departDelay="4.00" arrival="161.00" arrivalLane="E4_1" arrivalPos="289.60" arrivalSpeed="13.21" duration="50.00" routeLength="592.43" waitingTime="0.00" waitingCount="0" stopTime="0.00" timeLoss="6.59" rerouteNo="0" devices="tripinfo_107 routing_107" vType="DEFAULT_VEHTYPE" speedFactor="1.01" vaporized=""/>
    <tripinfo id="109" depart="114.00" departLane="E5_0" departPos="5.10" departSpeed="0.00" departDelay="5.00" arrival="164.00" arrivalLane="E4_0" arrivalPos="289.60" arrivalSpeed="13.09" duration="50.00" routeLength="597.32" waitingTime="0.00" waitingCount="0" stopTime="0.00" timeLoss="7.30" rerouteNo="0" devices="tripinfo_109 routing_109" vType="DEFAULT_VEHTYPE" speedFactor="1.03" vaporized=""/>
    <tripinfo id="82" depart="82.00" departLane="-E4_0" departPos="5.10" departSpeed="0.00" departDelay="0.00" arrival="167.00" arrivalLane="E3_1" arrivalPos="289.60" arrivalSpeed="14.57" duration="85.00" routeLength="594.90" waitingTime="34.00" waitingCount="1" stopTime="0.00" timeLoss="46.73" rerouteNo="0" devices="tripinfo_82 routing_82" vType="DEFAULT_VEHTYPE" speedFactor="1.14" vaporized=""/>
    <tripinfo id="59" depart="59.00" departLane="-E4_0" departPos="5.10" departSpeed="0.00" departDelay="0.00" arrival="169.00" arrivalLane="-E5_0" arrivalPos="289.60" arrivalSpeed="12.20" duration="110.00" routeLength="583.13" waitingTime="54.00" waitingCount="1" stopTime="0.00" timeLoss="65.23" rerouteNo="0" devices="tripinfo_59 routing_59" vType="DEFAULT_VEHTYPE" speedFactor="0.96" vaporized=""/>
    <tripinfo id="87" depart="87.00" departLane="-E4_0" departPos="5.10" departSpeed="0.00" departDelay="0.00" arrival="169.00" arrivalLane="-E1_1" arrivalPos="289.60" arrivalSpeed="14.22" duration="82.00" routeLength="592.43" waitingTime="29.00" waitingCount="1" stopTime="0.00" timeLoss="41.69" rerouteNo="0" devices="tripinfo_87 routing_87" vType="DEFAULT_VEHTYPE" speedFactor="1.08" vaporized=""/>
    <tripinfo id="61" depart="62.00" departLane="-E4_0" departPos="5.10" departSpeed="0.00" departDelay="1.00" arrival="170.00" arrivalLane="-E5_1" arrivalPos="289.60" arrivalSpeed="13.83" duration="108.00" routeLength="583.13" waitingTime="55.00" waitingCount="1" stopTime="0.00" timeLoss="66.17" rerouteNo="0" devices="tripinfo_61 routing_61" vType="DEFAULT_VEHTYPE" speedFactor="1.04" vaporized=""/>
    <tripinfo id="63" depart="65.00" departLane="-E4_0" departPos="5.10" departSpeed="0.00" departDelay="2.00" arrival="171.00" arrivalLane="-E5_0" arrivalPos="289.60" arrivalSpeed="14.38" duration="106.00" routeLength="583.13" waitingTime="53.00" waitingCount="1" stopTime="0.00" timeLoss="66.73" rerouteNo="0" devices="tripinfo_63 routing_63" vType="DEFAULT_VEHTYPE" speedFactor="1.09" vaporized=""/>
    <tripinfo id="90" depart="90.00" departLane="-E4_0" departPos="5.10" departSpeed="0.00" departDelay="0.00" arrival="172.00" arrivalLane="E3_1" arrivalPos="289.60" arrivalSpeed="13.35" duration="82.00" routeLength="594.90" waitingTime="28.00" waitingCount="1" stopTime="0.00" timeLoss="39.63" rerouteNo="0" devices="tripinfo_90 routing_90" vType="DEFAULT_VEHTYPE" speedFactor="1.02" vaporized=""/>
    <tripinfo id="120" depart="120.00" departLane="-E4_0" departPos="5.10" departSpeed="0.00" departDelay="0.00" arrival="176.00" arrivalLane="E3_1" arrivalPos="289.60" arrivalSpeed="14.01" duration="56.00" routeLength="594.90" waitingTime="2.00" waitingCount="1" stopTime="0.00" timeLoss="14.11" rerouteNo="0" devices="tripinfo_120 routing_120" vType="DEFAULT_VEHTYPE" speedFactor="1.04" vaporized=""/>
    <tripinfo id="96" depart="97.00" departLane="-E4_0" departPos="5.10" departSpeed="0.00" departDelay="1.00" arrival="177.00" arrivalLane="-E1_0" arrivalPos="289.60" arrivalSpeed="11.89" duration="80.00" routeLength="592.43" waitingTime="21.00" waitingCount="1" stopTime="0.00" timeLoss="32.60" rerouteNo="0" devices="tripinfo_96 routing_96" vType="DEFAULT_VEHTYPE" speedFactor="0.91" vaporized=""/>
    <tripinfo id="105" depart="105.00" departLane="-E4_0" departPos="5.10" departSpeed="0.00" departDelay="0.00" arrival="178.00" arrivalLane="E3_0" arrivalPos="289.60" arrivalSpeed="14.22" duration="73.00" routeLength="594.90" waitingTime="18.00" waitingCount="1" stopTime="0.00" timeLoss="30.70" rerouteNo="0" devices="tripinfo_105 routing_105" vType="DEFAULT_VEHTYPE" speedFactor="1.03" vaporized=""/>
    <tripinfo id="94" depart="94.00" departLane="-E4_0" departPos="5.10" departSpeed="0.00" departDelay="0.00" arrival="179.00" arrivalLane="-E5_0" arrivalPos="289.60" arrivalSpeed="11.13" duration="85.00" routeLength="583.13" waitingTime="22.00" waitingCount="1" stopTime="0.00" timeLoss="35.67" rerouteNo="0" devices="tripinfo_94 routing_94" vType="DEFAULT_VEHTYPE" speedFactor="0.88" vaporized=""/>
    <tripinfo id="128" depart="130.00" departLane="-E4_0" departPos="5.10" departSpeed="0.00" departDelay="2.00" arrival="179.00" arrivalLane="-E1_1" arrivalPos="289.60" arrivalSpeed="14.64" duration="49.00" routeLength="592.43" waitingTime="0.00" waitingCount="0" stopTime="0.00" timeLoss="8.62" rerouteNo="0" devices="tripinfo_128 routing_128" vType="DEFAULT_VEHTYPE" speedFactor="1.09" vaporized=""/>
    <tripinfo id="121" depart="123.00" departLane="-E4_0" departPos="5.10" departSpeed="0.00" departDelay="2.00" arrival="180.00" arrivalLane="E3_0" arrivalPos="289.60" arrivalSpeed="13.03" duration="57.00" routeLength="594.90" waitingTime="0.00" waitingCount="0" stopTime="0.00" timeLoss="14.18" rerouteNo="0" devices="tripinfo_121 routing_121" vType="DEFAULT_VEHTYPE" speedFactor="1.01" vaporized=""/>
    <tripinfo id="133" depart="133.00" departLane="-E4_0" departPos="5.10" departSpeed="0.00" departDelay="0.00" arrival="180.00" arrivalLane="-E1_1" arrivalPos="289.60" arrivalSpeed="15.15" duration="47.00" routeLength="592.43" waitingTime="0.00" waitingCount="0" stopTime="0.00" timeLoss="7.36" rerouteNo="0" devices="tripinfo_133 routing_133" vType="DEFAULT_VEHTYPE" speedFactor="1.10" vaporized=""/>
    <tripinfo id="127" depart="127.00" departLane="-E4_0" departPos="5.10" departSpeed="0.00" departDelay="0.00" arrival="184.00" arrivalLane="-E5_0" arrivalPos="289.60" arrivalSpeed="12.51" duration="57.00" routeLength="583.13" waitingTime="0.00" waitingCount="0" stopTime="0.00" timeLoss="10.91" rerouteNo="0" devices="tripinfo_127 routing_127" vType="DEFAULT_VEHTYPE" speedFactor="0.92" vaporized=""/>
    <tripinfo id="113" depart="120.00" departLane="E5_0" departPos="5.10" departSpeed="0.00" departDelay="7.00" arrival="190.00" arrivalLane="-E1_0" arrivalPos="289.60" arrivalSpeed="13.51" duration="70.00" routeLength="594.90" waitingTime="18.00" waitingCount="1" stopTime="0.00" timeLoss="27.32" rerouteNo="0" devices="tripinfo_113 routing_113" vType="DEFAULT_VEHTYPE" speedFactor="1.02" vaporized=""/>
    <tripinfo id="117" depart="123.00" departLane="E5_0" departPos="5.10" departSpeed="0.00" departDelay="6.00" arrival="190.00" arrivalLane="-E1_1" arrivalPos="289.60" arrivalSpeed="15.04" duration="67.00" routeLength="594.90" waitingTime="17.00" waitingCount="1" stopTime="0.00" timeLoss="29.67" rerouteNo="0" devices="tripinfo_117 routing_117" vType="DEFAULT_VEHTYPE" speedFactor="1.15" vaporized=""/>
    <tripinfo id="111" depart="117.00" departLane="E5_0" departPos="5.10" departSpeed="0.00" departDelay="6.00" arrival="191.00" arrivalLane="E4_1" arrivalPos="289.60" arrivalSpeed="13.18" duration="74.00" routeLength="592.43" waitingTime="20.00" waitingCount="1" stopTime="0.00" timeLoss="30.51" rerouteNo="0" devices="tripinfo_111 routing_111" vType="DEFAULT_VEHTYPE" speedFactor="1.00" vaporized=""/>
    <tripinfo id="129" depart="129.00" departLane="E5_0" departPos="5.10" departSpeed="0.00" departDelay="0.00" arrival="194.00" arrivalLane="E3_1" arrivalPos="289.60" arrivalSpeed="13.82" duration="65.00" routeLength="583.13" waitingTime="9.00" waitingCount="1" stopTime="0.00" timeLoss="24.51" rerouteNo="0" devices="tripinfo_129 routing_129" vType="DEFAULT_VEHTYPE" speedFactor="1.06" vaporized=""/>
    <tripinfo id="134" depart="134.00" departLane="E5_0" departPos="5.10" departSpeed="0.00" departDelay="0.00" arrival="194.00" arrivalLane="E4_1" arrivalPos="289.60" arrivalSpeed="14.79" duration="60.00" routeLength="592.43" waitingTime="7.00" waitingCount="1" stopTime="0.00" timeLoss="18.97" rerouteNo="0" devices="tripinfo_134 routing_134" vType="DEFAULT_VEHTYPE" speedFactor="1.06" vaporized=""/>
    <tripinfo id="126" depart="126.00" departLane="E5_0" departPos="5.10" departSpeed="0.00" departDelay="0.00" arrival="197.00" arrivalLane="E3_0" arrivalPos="289.60" arrivalSpeed="10.34" duration="71.00" routeLength="583.13" waitingTime="9.00" waitingCount="1" stopTime="0.00" timeLoss="19.75" rerouteNo="0" devices="tripinfo_126 routing_126" vType="DEFAULT_VEHTYPE" speedFactor="0.83" vaporized=""/>
    <tripinfo id="139" depart="139.00" departLane="E5_0" departPos="5.10" departSpeed="0.00" departDelay="0.00" arrival="198.00" arrivalLane="-E1_0" arrivalPos="289.60" arrivalSpeed="13.10" duration="59.00" routeLength="594.90" waitingTime="2.00" waitingCount="1" stopTime="0.00" timeLoss="14.40" rerouteNo="0" devices="tripinfo_139 routing_139" vType="DEFAULT_VEHTYPE" speedFactor="0.97" vaporized=""/>
    <tripinfo id="141" depart="141.00" departLane="-E4_0" departPos="5.10" departSpeed="0.00" departDelay="0.00" arrival="204.00" arrivalLane="-E1_0" arrivalPos="289.60" arrivalSpeed="12.31" duration="63.00" routeLength="597.32" waitingTime="8.00" waitingCount="1" stopTime="0.00" timeLoss="17.32" rerouteNo="0" devices="tripinfo_141 routing_141" vType="DEFAULT_VEHTYPE" speedFactor="0.95" vaporized=""/>
    <tripinfo id="154" depart="154.00" departLane="-E4_0" departPos="5.10" departSpeed="0.00" departDelay="0.00" arrival="207.00" arrivalLane="E3_0" arrivalPos="289.60" arrivalSpeed="11.94" duration="53.00" routeLength="594.90" waitingTime="0.00" waitingCount="0" stopTime="0.00" timeLoss="5.68" rerouteNo="0" devices="tripinfo_154 routing_154" vType="DEFAULT_VEHTYPE" speedFactor="0.92" vaporized=""/>
    <tripinfo id="157" depart="157.00" departLane="-E4_0" departPos="5.10" departSpeed="0.00" departDelay="0.00" arrival="207.00" arrivalLane="-E1_1" arrivalPos="289.60" arrivalSpeed="13.70" duration="50.00" routeLength="592.43" waitingTime="0.00" waitingCount="0" stopTime="0.00" timeLoss="6.34" rerouteNo="0" devices="tripinfo_157 routing_157" vType="DEFAULT_VEHTYPE" speedFactor="1.00" vaporized=""/>
    <tripinfo id="19" depart="19.00" departLane="-E3_0" departPos="5.10" departSpeed="0.00" departDelay="0.00" arrival="213.00" arrivalLane="-E5_0" arrivalPos="289.60" arrivalSpeed="14.36" duration="194.00" routeLength="597.32" waitingTime="138.00" waitingCount="2" stopTime="0.00" timeLoss="154.72" rerouteNo="0" devices="tripinfo_19 routing_19" vType="DEFAULT_VEHTYPE" speedFactor="1.12" vaporized=""/>
    <tripinfo id="45" depart="45.00" departLane="-E3_0" departPos="5.10" departSpeed="0.00" departDelay="0.00" arrival="214.00" arrivalLane="E4_1" arrivalPos="289.60" arrivalSpeed="15.39" duration="169.00" routeLength="594.90" waitingTime="109.00" waitingCount="2" stopTime="0.00" timeLoss="132.11" rerouteNo="0" devices="tripinfo_45 routing_45" vType="DEFAULT_VEHTYPE" speedFactor="1.17" vaporized=""/>
    <tripinfo id="23" depart="25.00" departLane="-E3_0" departPos="5.10" departSpeed="0.00" departDelay="2.00" arrival="218.00" arrivalLane="E4_0" arrivalPos="289.60" arrivalSpeed="12.38" duration="193.00" routeLength="594.90" waitingTime="132.00" waitingCount="2" stopTime="0.00" timeLoss="147.47" rerouteNo="0" devices="tripinfo_23 routing_23" vType="DEFAULT_VEHTYPE" speedFactor="0.94" vaporized=""/>
    <tripinfo id="31" depart="34.00" departLane="-E3_0" departPos="5.10" departSpeed="0.00" departDelay="3.00" arrival="218.00" arrivalLane="-E5_0" arrivalPos="289.60" arrivalSpeed="12.21" duration="184.00" routeLength="592.43" waitingTime="118.00" waitingCount="2" stopTime="0.00" timeLoss="134.66" rerouteNo="0" devices="tripinfo_31 routing_31" vType="DEFAULT_VEHTYPE" speedFactor="0.89" vaporized=""/>
    <tripinfo id="29" depart="31.00" departLane="-E3_0" departPos="5.10" departSpeed="0.00" departDelay="2.00" arrival="219.00" arrivalLane="-E1_0" arrivalPos="289.60" arrivalSpeed="13.17" duration="188.00" routeLength="583.13" waitingTime="128.00" waitingCount="2" stopTime="0.00" timeLoss="145.27" rerouteNo="0" devices="tripinfo_29 routing_29" vType="DEFAULT_VEHTYPE" speedFactor="1.01" vaporized=""/>
    <tripinfo id="46" depart="48.00" departLane="-E3_0" departPos="5.10" departSpeed="0.00" departDelay="2.00" arrival="219.00" arrivalLane="-E5_1" arrivalPos="289.60" arrivalSpeed="13.02" duration="171.00" routeLength="592.43" waitingTime="106.00" waitingCount="2" stopTime="0.00" timeLoss="127.23" rerouteNo="0" devices="tripinfo_46 routing_46" vType="DEFAULT_VEHTYPE" speedFactor="0.99" vaporized=""/>
    <tripinfo id="56" depart="57.00" departLane="-E3_0" departPos="5.10" departSpeed="0.00" departDelay="1.00" arrival="224.00" arrivalLane="E4_0" arrivalPos="289.60" arrivalSpeed="11.54" duration="167.00" routeLength="594.90" waitingTime="96.00" waitingCount="2" stopTime="0.00" timeLoss="118.68" rerouteNo="0" devices="tripinfo_56 routing_56" vType="DEFAULT_VEHTYPE" speedFactor="0.90" vaporized=""/>
    <tripinfo id="167" depart="168.00" departLane="-E4_0" departPos="5.10" departSpeed="0.00" departDelay="1.00" arrival="226.00" arrivalLane="E3_1" arrivalPos="289.60" arrivalSpeed="14.22" duration="58.00" routeLength="594.90" waitingTime="7.00" waitingCount="1" stopTime="0.00" timeLoss="16.05" rerouteNo="0" devices="tripinfo_167 routing_167" vType="DEFAULT_VEHTYPE" speedFactor="1.03" vaporized=""/>
    <tripinfo id="165" depart="165.00" departLane="-E4_0" departPos="5.10" departSpeed="0.00" departDelay="0.00" arrival="227.00" arrivalLane="-E1_0" arrivalPos="289.60" arrivalSpeed="15.16" duration="62.00" routeLength="597.32" waitingTime="11.00" waitingCount="1" stopTime="0.00" timeLoss="23.80" rerouteNo="0" devices="tripinfo_165 routing_165" vType="DEFAULT_VEHTYPE" speedFactor="1.15" vaporized=""/>
    <tripinfo id="182" depart="184.00" departLane="-E4_0" departPos="5.10" departSpeed="0.00" departDelay="2.00" arrival="229.00" arrivalLane="E3_1" arrivalPos="289.60" arrivalSpeed="15.38" duration="45.00" routeLength="594.90" waitingTime="0.00" waitingCount="0" stopTime="0.00" timeLoss="6.28" rerouteNo="0" devices="tripinfo_182 routing_182" vType="DEFAULT_VEHTYPE" speedFactor="1.12" vaporized=""/>
    <tripinfo id="181" depart="181.00" departLane="-E4_0" departPos="5.10" departSpeed="0.00" departDelay="0.00" arrival="231.00" arrivalLane="E3_0" arrivalPos="289.60" arrivalSpeed="13.51" duration="50.00" routeLength="594.90" waitingTime="0.00" waitingCount="0" stopTime="0.00" timeLoss="6.99" rerouteNo="0" devices="tripinfo_181 routing_181" vType="DEFAULT_VEHTYPE" speedFactor="1.01" vaporized=""/>
    <tripinfo id="186" depart="187.00" departLane="-E4_0" departPos="5.10" departSpeed="0.00" departDelay="1.00" arrival="232.00" arrivalLane="-E5_0" arrivalPos="289.60" arrivalSpeed="14.58" duration="45.00" routeLength="583.13" waitingTime="0.00" waitingCount="0" stopTime="0.00" timeLoss="6.78" rerouteNo="0" devices="tripinfo_186 routing_186" vType="DEFAULT_VEHTYPE" speedFactor="1.11" vaporized=""/>
    <tripinfo id="35" depart="37.00" departLane="-E3_0" departPos="5.10" departSpeed="0.00" departDelay="2.00" arrival="241.00" arrivalLane="-E5_0" arrivalPos="289.60" arrivalSpeed="11.88" duration="204.00" routeLength="597.32" waitingTime="135.00" waitingCount="3" stopTime="0.00" timeLoss="156.40" rerouteNo="0" devices="tripinfo_35 routing_35" vType="DEFAULT_VEHTYPE" speedFactor="0.92" vaporized=""/>
    <tripinfo id="78" depart="78.00" departLane="-E3_0" departPos="5.10" departSpeed="0.00" departDelay="0.00" arrival="241.00" arrivalLane="E4_1" arrivalPos="289.60" arrivalSpeed="12.93" duration="163.00" routeLength="594.90" waitingTime="90.00" waitingCount="3" stopTime="0.00" timeLoss="119.83" rerouteNo="0" devices="tripinfo_78 routing_78" vType="DEFAULT_VEHTYPE" speedFactor="1.00" vaporized=""/>