<?xml version="1.0" encoding="UTF-8"?>

<!-- generated on 2024-05-28 20:48:11 by Eclipse SUMO GUI Version 1.14.1
<configuration xmlns:xsi="http://www.w3.org/2001/XMLSchema-instance" xsi:noNamespaceSchemaLocation="http://sumo.dlr.de/xsd/sumoConfiguration.xsd">

    <input>
        <net-file value="osm.net.xml"/>
        <route-files value="osm.passenger.trips.xml"/>
        <additional-files value="osm.poly.xml"/>
    </input>

    <output>
        <tripinfo-output value="tripinfo.xml"/>
    </output>

    <processing>
        <ignore-route-errors value="true"/>
    </processing>

    <routing>
        <device.rerouting.adaptation-steps value="18"/>
        <device.rerouting.adaptation-interval value="10"/>
    </routing>

    <report>
        <verbose value="true"/>
        <duration-log.statistics value="true"/>
        <no-step-log value="true"/>
    </report>

    <traci_server>
        <remote-port value="64853"/>
    </traci_server>

    <gui_only>
        <gui-settings-file value="osm.view.xml"/>
    </gui_only>

</configuration>
-->

<tripinfos xmlns:xsi="http://www.w3.org/2001/XMLSchema-instance" xsi:noNamespaceSchemaLocation="http://sumo.dlr.de/xsd/tripinfo_file.xsd">
    <tripinfo id="veh2" depart="12.00" departLane="E5_0" departPos="5.10" departSpeed="0.00" departDelay="0.00" arrival="60.00" arrivalLane="-E1_0" arrivalPos="289.60" arrivalSpeed="13.01" duration="48.00" routeLength="594.90" waitingTime="0.00" waitingCount="0" stopTime="0.00" timeLoss="4.86" rerouteNo="0" devices="tripinfo_veh2 routing_veh2" vType="veh_passenger" speedFactor="1.01" vaporized=""/>
    <tripinfo id="veh2.1" depart="15.00" departLane="E5_0" departPos="5.10" departSpeed="0.00" departDelay="3.00" arrival="61.00" arrivalLane="-E1_1" arrivalPos="289.60" arrivalSpeed="14.14" duration="46.00" routeLength="594.90" waitingTime="0.00" waitingCount="0" stopTime="0.00" timeLoss="5.62" rerouteNo="0" devices="tripinfo_veh2.1 routing_veh2.1" vType="veh_passenger" speedFactor="1.08" vaporized=""/>
    <tripinfo id="veh2.2" depart="18.00" departLane="E5_0" departPos="5.10" departSpeed="0.00" departDelay="6.00" arrival="65.00" arrivalLane="-E1_0" arrivalPos="289.60" arrivalSpeed="13.71" duration="47.00" routeLength="594.90" waitingTime="0.00" waitingCount="0" stopTime="0.00" timeLoss="4.75" rerouteNo="0" devices="tripinfo_veh2.2 routing_veh2.2" vType="veh_passenger" speedFactor="1.03" vaporized=""/>
    <tripinfo id="veh0" depart="0.00" departLane="-E4_0" departPos="5.10" departSpeed="0.00" departDelay="0.00" arrival="72.00" arrivalLane="-E1_0" arrivalPos="289.60" arrivalSpeed="14.32" duration="72.00" routeLength="597.32" waitingTime="21.00" waitingCount="1" stopTime="0.00" timeLoss="30.34" rerouteNo="0" devices="tripinfo_veh0 routing_veh0" vType="veh_passenger" speedFactor="1.06" vaporized=""/>
    <tripinfo id="veh3" depart="18.00" departLane="-E4_0" departPos="5.10" departSpeed="0.00" departDelay="0.00" arrival="73.00" arrivalLane="-E1_1" arrivalPos="289.60" arrivalSpeed="13.16" duration="55.00" routeLength="592.43" waitingTime="1.00" waitingCount="1" stopTime="0.00" timeLoss="10.54" rerouteNo="0" devices="tripinfo_veh3 routing_veh3" vType="veh_passenger" speedFactor="0.97" vaporized=""/>
    <tripinfo id="veh3.1" depart="21.00" departLane="-E4_0" departPos="5.10" departSpeed="0.00" departDelay="3.00" arrival="78.00" arrivalLane="-E1_0" arrivalPos="289.60" arrivalSpeed="11.64" duration="57.00" routeLength="597.32" waitingTime="0.00" waitingCount="0" stopTime="0.00" timeLoss="7.47" rerouteNo="0" devices="tripinfo_veh3.1 routing_veh3.1" vType="veh_passenger" speedFactor="0.89" vaporized=""/>
    <tripinfo id="veh3.2" depart="24.00" departLane="-E4_0" departPos="5.10" departSpeed="0.00" departDelay="6.00" arrival="85.00" arrivalLane="-E1_0" arrivalPos="289.60" arrivalSpeed="10.46" duration="61.00" routeLength="597.32" waitingTime="0.00" waitingCount="0" stopTime="0.00" timeLoss="7.82" rerouteNo="0" devices="tripinfo_veh3.2 routing_veh3.2" vType="veh_passenger" speedFactor="0.83" vaporized=""/>
    <tripinfo id="veh3.3" depart="28.00" departLane="-E4_0" departPos="5.10" departSpeed="0.00" departDelay="10.00" arrival="85.00" arrivalLane="-E1_1" arrivalPos="289.60" arrivalSpeed="11.87" duration="57.00" routeLength="592.43" waitingTime="0.00" waitingCount="0" stopTime="0.00" timeLoss="6.77" rerouteNo="0" devices="tripinfo_veh3.3 routing_veh3.3" vType="veh_passenger" speedFactor="0.87" vaporized=""/>
    <tripinfo id="veh3.4" depart="31.00" departLane="-E4_0" departPos="5.10" departSpeed="0.00" departDelay="13.00" arrival="87.00" arrivalLane="-E1_0" arrivalPos="289.60" arrivalSpeed="12.72" duration="56.00" routeLength="597.32" waitingTime="0.00" waitingCount="0" stopTime="0.00" timeLoss="7.75" rerouteNo="0" devices="tripinfo_veh3.4 routing_veh3.4" vType="veh_passenger" speedFactor="0.92" vaporized=""/>
    <tripinfo id="veh3.6" depart="37.00" departLane="-E4_0" departPos="5.10" departSpeed="0.00" departDelay="19.00" arrival="87.00" arrivalLane="-E1_1" arrivalPos="289.60" arrivalSpeed="15.03" duration="50.00" routeLength="592.43" waitingTime="0.00" waitingCount="0" stopTime="0.00" timeLoss="10.83" rerouteNo="0" devices="tripinfo_veh3.6 routing_veh3.6" vType="veh_passenger" speedFactor="1.13" vaporized=""/>
    <tripinfo id="veh3.8" depart="43.00" departLane="-E4_0" departPos="5.10" departSpeed="0.00" departDelay="25.00" arrival="88.00" arrivalLane="-E1_1" arrivalPos="289.60" arrivalSpeed="15.81" duration="45.00" routeLength="592.43" waitingTime="0.00" waitingCount="0" stopTime="0.00" timeLoss="8.17" rerouteNo="0" devices="tripinfo_veh3.8 routing_veh3.8" vType="veh_passenger" speedFactor="1.18" vaporized=""/>
    <tripinfo id="veh3.5" depart="34.00" departLane="-E4_0" departPos="5.10" departSpeed="0.00" departDelay="16.00" arrival="89.00" arrivalLane="-E1_0" arrivalPos="289.60" arrivalSpeed="11.94" duration="55.00" routeLength="597.32" waitingTime="0.00" waitingCount="0" stopTime="0.00" timeLoss="8.36" rerouteNo="0" devices="tripinfo_veh3.5 routing_veh3.5" vType="veh_passenger" speedFactor="0.95" vaporized=""/>
    <tripinfo id="veh3.9" depart="46.00" departLane="-E4_0" departPos="5.10" departSpeed="0.00" departDelay="28.00" arrival="92.00" arrivalLane="-E1_1" arrivalPos="289.60" arrivalSpeed="15.88" duration="46.00" routeLength="597.32" waitingTime="0.00" waitingCount="0" stopTime="0.00" timeLoss="7.44" rerouteNo="0" devices="tripinfo_veh3.9 routing_veh3.9" vType="veh_passenger" speedFactor="1.15" vaporized=""/>
    <tripinfo id="veh3.7" depart="40.00" departLane="-E4_0" departPos="5.10" departSpeed="0.00" departDelay="22.00" arrival="93.00" arrivalLane="-E1_0" arrivalPos="289.60" arrivalSpeed="12.85" duration="53.00" routeLength="597.32" waitingTime="0.00" waitingCount="0" stopTime="0.00" timeLoss="5.99" rerouteNo="0" devices="tripinfo_veh3.7 routing_veh3.7" vType="veh_passenger" speedFactor="0.93" vaporized=""/>
    <tripinfo id="veh3.11" depart="52.00" departLane="-E4_0" departPos="5.10" departSpeed="0.00" departDelay="34.00" arrival="97.00" arrivalLane="-E1_1" arrivalPos="289.60" arrivalSpeed="15.86" duration="45.00" routeLength="592.43" waitingTime="0.00" waitingCount="0" stopTime="0.00" timeLoss="7.71" rerouteNo="0" devices="tripinfo_veh3.11 routing_veh3.11" vType="veh_passenger" speedFactor="1.17" vaporized=""/>
    <tripinfo id="veh3.10" depart="49.00" departLane="-E4_0" departPos="5.10" departSpeed="0.00" departDelay="31.00" arrival="99.00" arrivalLane="-E1_0" arrivalPos="289.60" arrivalSpeed="13.10" duration="50.00" routeLength="597.32" waitingTime="0.00" waitingCount="0" stopTime="0.00" timeLoss="6.64" rerouteNo="0" devices="tripinfo_veh3.10 routing_veh3.10" vType="veh_passenger" speedFactor="1.01" vaporized=""/>
    <tripinfo id="veh3.12" depart="55.00" departLane="-E4_0" departPos="5.10" departSpeed="0.00" departDelay="37.00" arrival="106.00" arrivalLane="-E1_0" arrivalPos="289.60" arrivalSpeed="13.28" duration="51.00" routeLength="597.32" waitingTime="0.00" waitingCount="0" stopTime="0.00" timeLoss="6.39" rerouteNo="0" devices="tripinfo_veh3.12 routing_veh3.12" vType="veh_passenger" speedFactor="0.99" vaporized=""/>
    <tripinfo id="veh3.13" depart="58.00" departLane="-E4_0" departPos="5.10" departSpeed="0.00" departDelay="40.00" arrival="107.00" arrivalLane="-E1_1" arrivalPos="289.60" arrivalSpeed="13.56" duration="49.00" routeLength="592.43" waitingTime="0.00" waitingCount="0" stopTime="0.00" timeLoss="5.97" rerouteNo="0" devices="tripinfo_veh3.13 routing_veh3.13" vType="veh_passenger" speedFactor="1.02" vaporized=""/>
    <tripinfo id="veh3.15" depart="64.00" departLane="-E4_0" departPos="5.10" departSpeed="0.00" departDelay="46.00" arrival="109.00" arrivalLane="-E1_1" arrivalPos="289.60" arrivalSpeed="15.26" duration="45.00" routeLength="592.43" waitingTime="0.00" waitingCount="0" stopTime="0.00" timeLoss="7.89" rerouteNo="0" devices="tripinfo_veh3.15 routing_veh3.15" vType="veh_passenger" speedFactor="1.18" vaporized=""/>
    <tripinfo id="veh3.14" depart="61.00" departLane="-E4_0" departPos="5.10" departSpeed="0.00" departDelay="43.00" arrival="113.00" arrivalLane="-E1_0" arrivalPos="289.60" arrivalSpeed="12.64" duration="52.00" routeLength="597.32" waitingTime="0.00" waitingCount="0" stopTime="0.00" timeLoss="6.91" rerouteNo="0" devices="tripinfo_veh3.14 routing_veh3.14" vType="veh_passenger" speedFactor="0.97" vaporized=""/>
    <tripinfo id="veh1" depart="6.00" departLane="E1_0" departPos="5.10" departSpeed="0.00" departDelay="0.00" arrival="121.00" arrivalLane="E3_0" arrivalPos="289.60" arrivalSpeed="12.16" duration="115.00" routeLength="592.43" waitingTime="59.00" waitingCount="1" stopTime="0.00" timeLoss="68.48" rerouteNo="0" devices="tripinfo_veh1 routing_veh1" vType="veh_passenger" speedFactor="0.94" vaporized=""/>
    <tripinfo id="veh5" depart="30.00" departLane="E1_0" departPos="5.10" departSpeed="0.00" departDelay="0.00" arrival="122.00" arrivalLane="E3_1" arrivalPos="289.60" arrivalSpeed="13.34" duration="92.00" routeLength="592.43" waitingTime="39.00" waitingCount="1" stopTime="0.00" timeLoss="49.37" rerouteNo="0" devices="tripinfo_veh5 routing_veh5" vType="veh_passenger" speedFactor="1.02" vaporized=""/>
    <tripinfo id="veh5.1" depart="33.00" departLane="E1_0" departPos="5.10" departSpeed="0.00" departDelay="3.00" arrival="125.00" arrivalLane="E3_0" arrivalPos="289.60" arrivalSpeed="13.10" duration="92.00" routeLength="592.43" waitingTime="35.00" waitingCount="1" stopTime="0.00" timeLoss="47.52" rerouteNo="0" devices="tripinfo_veh5.1 routing_veh5.1" vType="veh_passenger" speedFactor="0.99" vaporized=""/>
    <tripinfo id="veh5.2" depart="36.00" departLane="E1_0" departPos="5.10" departSpeed="0.00" departDelay="6.00" arrival="129.00" arrivalLane="E3_0" arrivalPos="289.60" arrivalSpeed="11.99" duration="93.00" routeLength="592.43" waitingTime="33.00" waitingCount="1" stopTime="0.00" timeLoss="46.39" rerouteNo="0" devices="tripinfo_veh5.2 routing_veh5.2" vType="veh_passenger" speedFactor="0.94" vaporized=""/>
    <tripinfo id="veh5.3" depart="39.00" departLane="E1_0" departPos="5.10" departSpeed="0.00" departDelay="9.00" arrival="133.00" arrivalLane="E3_0" arrivalPos="289.60" arrivalSpeed="11.68" duration="94.00" routeLength="592.43" waitingTime="30.00" waitingCount="1" stopTime="0.00" timeLoss="44.99" rerouteNo="0" devices="tripinfo_veh5.3 routing_veh5.3" vType="veh_passenger" speedFactor="0.88" vaporized=""/>
    <tripinfo id="veh5.4" depart="42.00" departLane="E1_0" departPos="5.10" departSpeed="0.00" departDelay="12.00" arrival="135.00" arrivalLane="E3_1" arrivalPos="289.60" arrivalSpeed="11.46" duration="93.00" routeLength="592.43" waitingTime="27.00" waitingCount="1" stopTime="0.00" timeLoss="44.85" rerouteNo="0" devices="tripinfo_veh5.4 routing_veh5.4" vType="veh_passenger" speedFactor="0.91" vaporized=""/>
    <tripinfo id="veh5.5" depart="46.00" departLane="E1_0" departPos="5.10" departSpeed="0.00" departDelay="16.00" arrival="138.00" arrivalLane="E3_0" arrivalPos="289.60" arrivalSpeed="11.44" duration="92.00" routeLength="592.43" waitingTime="25.00" waitingCount="1" stopTime="0.00" timeLoss="43.97" rerouteNo="0" devices="tripinfo_veh5.5 routing_veh5.5" vType="veh_passenger" speedFactor="0.91" vaporized=""/>
    <tripinfo id="veh5.6" depart="49.00" departLane="E1_0" departPos="5.10" departSpeed="0.00" departDelay="19.00" arrival="138.00" arrivalLane="E3_1" arrivalPos="289.60" arrivalSpeed="14.40" duration="89.00" routeLength="592.43" waitingTime="27.00" waitingCount="1" stopTime="0.00" timeLoss="47.15" rerouteNo="0" devices="tripinfo_veh5.6 routing_veh5.6" vType="veh_passenger" speedFactor="1.04" vaporized=""/>
    <tripinfo id="veh5.7" depart="52.00" departLane="E1_0" departPos="5.10" departSpeed="0.00" departDelay="22.00" arrival="140.00" arrivalLane="E3_1" arrivalPos="289.60" arrivalSpeed="12.95" duration="88.00" routeLength="592.43" waitingTime="25.00" waitingCount="1" stopTime="0.00" timeLoss="45.55" rerouteNo="0" devices="tripinfo_veh5.7 routing_veh5.7" vType="veh_passenger" speedFactor="1.02" vaporized=""/>
    <tripinfo id="veh12" depart="91.00" departLane="E1_0" departPos="5.10" departSpeed="0.00" departDelay="19.00" arrival="140.00" arrivalLane="E4_0" arrivalPos="289.60" arrivalSpeed="13.22" duration="49.00" routeLength="583.13" waitingTime="0.00" waitingCount="0" stopTime="0.00" timeLoss="7.72" rerouteNo="0" devices="tripinfo_veh12 routing_veh12" vType="veh_passenger" speedFactor="1.03" vaporized=""/>
    <tripinfo id="veh12.1" depart="94.00" departLane="E1_0" departPos="5.10" departSpeed="0.00" departDelay="22.00" arrival="141.00" arrivalLane="E4_1" arrivalPos="289.60" arrivalSpeed="14.11" duration="47.00" routeLength="583.13" waitingTime="0.00" waitingCount="0" stopTime="0.00" timeLoss="8.54" rerouteNo="0" devices="tripinfo_veh12.1 routing_veh12.1" vType="veh_passenger" speedFactor="1.11" vaporized=""/>
    <tripinfo id="veh5.8" depart="55.00" departLane="E1_0" departPos="5.10" departSpeed="0.00" departDelay="25.00" arrival="142.00" arrivalLane="E3_1" arrivalPos="289.60" arrivalSpeed="14.18" duration="87.00" routeLength="592.43" waitingTime="24.00" waitingCount="1" stopTime="0.00" timeLoss="44.14" rerouteNo="0" devices="tripinfo_veh5.8 routing_veh5.8" vType="veh_passenger" speedFactor="1.02" vaporized=""/>
    <tripinfo id="veh12.2" depart="97.00" departLane="E1_0" departPos="5.10" departSpeed="0.00" departDelay="25.00" arrival="144.00" arrivalLane="E4_0" arrivalPos="289.60" arrivalSpeed="14.80" duration="47.00" routeLength="583.13" waitingTime="0.00" waitingCount="0" stopTime="0.00" timeLoss="7.11" rerouteNo="0" devices="tripinfo_veh12.2 routing_veh12.2" vType="veh_passenger" speedFactor="1.07" vaporized=""/>
    <tripinfo id="veh5.9" depart="58.00" departLane="E1_0" departPos="5.10" departSpeed="0.00" departDelay="28.00" arrival="145.00" arrivalLane="E3_0" arrivalPos="289.60" arrivalSpeed="13.50" duration="87.00" routeLength="592.43" waitingTime="23.00" waitingCount="1" stopTime="0.00" timeLoss="42.22" rerouteNo="0" devices="tripinfo_veh5.9 routing_veh5.9" vType="veh_passenger" speedFactor="0.97" vaporized=""/>
    <tripinfo id="veh5.10" depart="61.00" departLane="E1_0" departPos="5.10" departSpeed="0.00" departDelay="31.00" arrival="148.00" arrivalLane="E3_0" arrivalPos="289.60" arrivalSpeed="12.31" duration="87.00" routeLength="592.43" waitingTime="22.00" waitingCount="1" stopTime="0.00" timeLoss="40.37" rerouteNo="0" devices="tripinfo_veh5.10 routing_veh5.10" vType="veh_passenger" speedFactor="0.94" vaporized=""/>
    <tripinfo id="veh5.11" depart="64.00" departLane="E1_0" departPos="5.10" departSpeed="0.00" departDelay="34.00" arrival="149.00" arrivalLane="E3_1" arrivalPos="289.60" arrivalSpeed="14.07" duration="85.00" routeLength="592.43" waitingTime="21.00" waitingCount="1" stopTime="0.00" timeLoss="43.61" rerouteNo="0" devices="tripinfo_veh5.11 routing_veh5.11" vType="veh_passenger" speedFactor="1.06" vaporized=""/>
    <tripinfo id="veh12.3" depart="100.00" departLane="E1_0" departPos="5.10" departSpeed="0.00" departDelay="28.00" arrival="149.00" arrivalLane="E4_0" arrivalPos="289.60" arrivalSpeed="13.37" duration="49.00" routeLength="583.13" waitingTime="0.00" waitingCount="0" stopTime="0.00" timeLoss="6.56" rerouteNo="0" devices="tripinfo_veh12.3 routing_veh12.3" vType="veh_passenger" speedFactor="1.02" vaporized=""/>
    <tripinfo id="veh5.12" depart="67.00" departLane="E1_0" departPos="5.10" departSpeed="0.00" departDelay="37.00" arrival="153.00" arrivalLane="E3_0" arrivalPos="289.60" arrivalSpeed="12.37" duration="86.00" routeLength="592.43" waitingTime="20.00" waitingCount="1" stopTime="0.00" timeLoss="39.82" rerouteNo="0" devices="tripinfo_veh5.12 routing_veh5.12" vType="veh_passenger" speedFactor="0.96" vaporized=""/>
    <tripinfo id="veh12.4" depart="103.00" departLane="E1_0" departPos="5.10" departSpeed="0.00" departDelay="31.00" arrival="153.00" arrivalLane="E4_0" arrivalPos="289.60" arrivalSpeed="12.67" duration="50.00" routeLength="583.13" waitingTime="0.00" waitingCount="0" stopTime="0.00" timeLoss="7.59" rerouteNo="0" devices="tripinfo_veh12.4 routing_veh12.4" vType="veh_passenger" speedFactor="1.00" vaporized=""/>
    <tripinfo id="veh5.13" depart="70.00" departLane="E1_0" departPos="5.10" departSpeed="0.00" departDelay="40.00" arrival="155.00" arrivalLane="E3_1" arrivalPos="289.60" arrivalSpeed="12.54" duration="85.00" routeLength="592.43" waitingTime="20.00" waitingCount="1" stopTime="0.00" timeLoss="40.64" rerouteNo="0" devices="tripinfo_veh5.13 routing_veh5.13" vType="veh_passenger" speedFactor="0.98" vaporized=""/>
    <tripinfo id="veh5.14" depart="73.00" departLane="E1_0" departPos="5.10" departSpeed="0.00" departDelay="43.00" arrival="157.00" arrivalLane="E3_1" arrivalPos="289.60" arrivalSpeed="13.28" duration="84.00" routeLength="592.43" waitingTime="19.00" waitingCount="1" stopTime="0.00" timeLoss="41.60" rerouteNo="0" devices="tripinfo_veh5.14 routing_veh5.14" vType="veh_passenger" speedFactor="1.03" vaporized=""/>
    <tripinfo id="veh12.5" depart="106.00" departLane="E1_0" departPos="5.10" departSpeed="0.00" departDelay="34.00" arrival="158.00" arrivalLane="E4_0" arrivalPos="289.60" arrivalSpeed="12.38" duration="52.00" routeLength="583.13" waitingTime="0.00" waitingCount="0" stopTime="0.00" timeLoss="6.96" rerouteNo="0" devices="tripinfo_veh12.5 routing_veh12.5" vType="veh_passenger" speedFactor="0.97" vaporized=""/>
    <tripinfo id="veh5.15" depart="76.00" departLane="E1_0" departPos="5.10" departSpeed="0.00" departDelay="46.00" arrival="160.00" arrivalLane="E3_0" arrivalPos="289.60" arrivalSpeed="13.30" duration="84.00" routeLength="592.43" waitingTime="18.00" waitingCount="1" stopTime="0.00" timeLoss="39.62" rerouteNo="0" devices="tripinfo_veh5.15 routing_veh5.15" vType="veh_passenger" speedFactor="0.98" vaporized=""/>
    <tripinfo id="veh12.6" depart="109.00" departLane="E1_0" departPos="5.10" departSpeed="0.00" departDelay="37.00" arrival="161.00" arrivalLane="E4_0" arrivalPos="289.60" arrivalSpeed="12.35" duration="52.00" routeLength="583.13" waitingTime="0.00" waitingCount="0" stopTime="0.00" timeLoss="7.36" rerouteNo="0" devices="tripinfo_veh12.6 routing_veh12.6" vType="veh_passenger" speedFactor="0.96" vaporized=""/>
    <tripinfo id="veh4" depart="24.00" departLane="-E3_0" departPos="5.10" departSpeed="0.00" departDelay="0.00" arrival="164.00" arrivalLane="-E1_0" arrivalPos="289.60" arrivalSpeed="14.71" duration="140.00" routeLength="583.13" waitingTime="92.00" waitingCount="1" stopTime="0.00" timeLoss="100.77" rerouteNo="0" devices="tripinfo_veh4 routing_veh4" vType="veh_passenger" speedFactor="1.09" vaporized=""/>
    <tripinfo id="veh4.1" depart="27.00" departLane="-E3_0" departPos="5.10" departSpeed="0.00" departDelay="3.00" arrival="168.00" arrivalLane="-E1_0" arrivalPos="289.60" arrivalSpeed="14.00" duration="141.00" routeLength="583.13" waitingTime="89.00" waitingCount="1" stopTime="0.00" timeLoss="98.94" rerouteNo="0" devices="tripinfo_veh4.1 routing_veh4.1" vType="veh_passenger" speedFactor="1.04" vaporized=""/>
    <tripinfo id="veh4.2" depart="30.00" departLane="-E3_0" departPos="5.10" departSpeed="0.00" departDelay="6.00" arrival="170.00" arrivalLane="-E1_0" arrivalPos="289.60" arrivalSpeed="13.59" duration="140.00" routeLength="583.13" waitingTime="86.00" waitingCount="1" stopTime="0.00" timeLoss="98.84" rerouteNo="0" devices="tripinfo_veh4.2 routing_veh4.2" vType="veh_passenger" speedFactor="1.04" vaporized=""/>
    <tripinfo id="veh4.3" depart="33.00" departLane="-E3_0" departPos="5.10" departSpeed="0.00" departDelay="9.00" arrival="172.00" arrivalLane="-E1_0" arrivalPos="289.60" arrivalSpeed="13.93" duration="139.00" routeLength="583.13" waitingTime="85.00" waitingCount="1" stopTime="0.00" timeLoss="98.98" rerouteNo="0" devices="tripinfo_veh4.3 routing_veh4.3" vType="veh_passenger" speedFactor="1.09" vaporized=""/>
    <tripinfo id="veh4.4" depart="36.00" departLane="-E3_0" departPos="5.10" departSpeed="0.00" departDelay="12.00" arrival="176.00" arrivalLane="-E1_0" arrivalPos="289.60" arrivalSpeed="13.28" duration="140.00" routeLength="583.13" waitingTime="84.00" waitingCount="1" stopTime="0.00" timeLoss="97.07" rerouteNo="0" devices="tripinfo_veh4.4 routing_veh4.4" vType="veh_passenger" speedFactor="1.00" vaporized=""/>
    <tripinfo id="veh4.5" depart="39.00" departLane="-E3_0" departPos="5.10" departSpeed="0.00" departDelay="15.00" arrival="182.00" arrivalLane="-E1_0" arrivalPos="289.60" arrivalSpeed="11.89" duration="143.00" routeLength="583.13" waitingTime="79.00" waitingCount="1" stopTime="0.00" timeLoss="94.56" rerouteNo="0" devices="tripinfo_veh4.5 routing_veh4.5" vType="veh_passenger" speedFactor="0.90" vaporized=""/>
    <tripinfo id="veh4.6" depart="42.00" departLane="-E3_0" departPos="5.10" departSpeed="0.00" departDelay="18.00" arrival="185.00" arrivalLane="-E1_0" arrivalPos="289.60" arrivalSpeed="11.57" duration="143.00" routeLength="583.13" waitingTime="78.00" waitingCount="1" stopTime="0.00" timeLoss="93.66" rerouteNo="0" devices="tripinfo_veh4.6 routing_veh4.6" vType="veh_passenger" speedFactor="0.88" vaporized=""/>
    <tripinfo id="veh4.9" depart="51.00" departLane="-E3_0" departPos="5.10" departSpeed="0.00" departDelay="27.00" arrival="186.00" arrivalLane="-E1_1" arrivalPos="289.60" arrivalSpeed="15.60" duration="135.00" routeLength="583.13" waitingTime="74.00" waitingCount="1" stopTime="0.00" timeLoss="98.42" rerouteNo="0" devices="tripinfo_veh4.9 routing_veh4.9" vType="veh_passenger" speedFactor="1.17" vaporized=""/>
    <tripinfo id="veh4.7" depart="45.00" departLane="-E3_0" departPos="5.10" departSpeed="0.00" departDelay="21.00" arrival="189.00" arrivalLane="-E1_0" arrivalPos="289.60" arrivalSpeed="11.59" duration="144.00" routeLength="583.13" waitingTime="77.00" waitingCount="1" stopTime="0.00" timeLoss="93.00" rerouteNo="0" devices="tripinfo_veh4.7 routing_veh4.7" vType="veh_passenger" speedFactor="0.85" vaporized=""/>
    <tripinfo id="veh4.8" depart="48.00" departLane="-E3_0" departPos="5.10" departSpeed="0.00" departDelay="24.00" arrival="191.00" arrivalLane="-E1_0" arrivalPos="289.60" arrivalSpeed="11.26" duration="143.00" routeLength="583.13" waitingTime="74.00" waitingCount="1" stopTime="0.00" timeLoss="92.20" rerouteNo="0" devices="tripinfo_veh4.8 routing_veh4.8" vType="veh_passenger" speedFactor="0.85" vaporized=""/>
    <tripinfo id="veh4.10" depart="54.00" departLane="-E3_0" departPos="5.10" departSpeed="0.00" departDelay="30.00" arrival="192.00" arrivalLane="-E1_0" arrivalPos="289.60" arrivalSpeed="13.52" duration="138.00" routeLength="583.13" waitingTime="73.00" waitingCount="1" stopTime="0.00" timeLoss="96.11" rerouteNo="0" devices="tripinfo_veh4.10 routing_veh4.10" vType="veh_passenger" speedFactor="1.02" vaporized=""/>
    <tripinfo id="veh4.11" depart="57.00" departLane="-E3_0" departPos="5.10" departSpeed="0.00" departDelay="33.00" arrival="193.00" arrivalLane="-E1_1" arrivalPos="289.60" arrivalSpeed="14.40" duration="136.00" routeLength="583.13" waitingTime="73.00" waitingCount="1" stopTime="0.00" timeLoss="96.29" rerouteNo="0" devices="tripinfo_veh4.11 routing_veh4.11" vType="veh_passenger" speedFactor="1.10" vaporized=""/>
    <tripinfo id="veh4.12" depart="60.00" departLane="-E3_0" departPos="5.10" departSpeed="0.00" departDelay="36.00" arrival="197.00" arrivalLane="-E1_0" arrivalPos="289.60" arrivalSpeed="12.87" duration="137.00" routeLength="583.13" waitingTime="72.00" waitingCount="1" stopTime="0.00" timeLoss="94.24" rerouteNo="0" devices="tripinfo_veh4.12 routing_veh4.12" vType="veh_passenger" speedFactor="1.00" vaporized=""/>
    <tripinfo id="veh4.13" depart="63.00" departLane="-E3_0" departPos="5.10" departSpeed="0.00" departDelay="39.00" arrival="199.00" arrivalLane="-E1_1" arrivalPos="289.60" arrivalSpeed="12.65" duration="136.00" routeLength="583.13" waitingTime="70.00" waitingCount="1" stopTime="0.00" timeLoss="92.75" rerouteNo="0" devices="tripinfo_veh4.13 routing_veh4.13" vType="veh_passenger" speedFactor="1.00" vaporized=""/>
    <tripinfo id="veh4.15" depart="69.00" departLane="-E3_0" departPos="5.10" departSpeed="0.00" departDelay="45.00" arrival="202.00" arrivalLane="-E1_1" arrivalPos="289.60" arrivalSpeed="14.80" duration="133.00" routeLength="583.13" waitingTime="67.00" waitingCount="1" stopTime="0.00" timeLoss="95.25" rerouteNo="0" devices="tripinfo_veh4.15 routing_veh4.15" vType="veh_passenger" speedFactor="1.14" vaporized=""/>
    <tripinfo id="veh4.14" depart="66.00" departLane="-E3_0" departPos="5.10" departSpeed="0.00" departDelay="42.00" arrival="205.00" arrivalLane="-E1_0" arrivalPos="289.60" arrivalSpeed="12.01" duration="139.00" routeLength="583.13" waitingTime="67.00" waitingCount="1" stopTime="0.00" timeLoss="90.55" rerouteNo="0" devices="tripinfo_veh4.14 routing_veh4.14" vType="veh_passenger" speedFactor="0.90" vaporized=""/>
    <tripinfo id="veh4.16" depart="72.00" departLane="-E3_0" departPos="5.10" departSpeed="0.00" departDelay="48.00" arrival="207.00" arrivalLane="-E1_0" arrivalPos="289.60" arrivalSpeed="13.73" duration="135.00" routeLength="583.13" waitingTime="66.00" waitingCount="1" stopTime="0.00" timeLoss="92.72" rerouteNo="0" devices="tripinfo_veh4.16 routing_veh4.16" vType="veh_passenger" speedFactor="1.02" vaporized=""/>
    <tripinfo id="veh2.4" depart="24.00" departLane="E5_0" departPos="5.10" departSpeed="0.00" departDelay="12.00" arrival="213.00" arrivalLane="-E1_1" arrivalPos="289.60" arrivalSpeed="13.59" duration="189.00" routeLength="594.90" waitingTime="136.00" waitingCount="1" stopTime="0.00" timeLoss="147.12" rerouteNo="0" devices="tripinfo_veh2.4 routing_veh2.4" vType="veh_passenger" speedFactor="1.05" vaporized=""/>
    <tripinfo id="veh2.6" depart="31.00" departLane="E5_0" departPos="5.10" departSpeed="0.00" departDelay="19.00" arrival="217.00" arrivalLane="-E1_1" arrivalPos="289.60" arrivalSpeed="12.72" duration="186.00" routeLength="594.90" waitingTime="130.00" waitingCount="1" stopTime="0.00" timeLoss="140.01" rerouteNo="0" devices="tripinfo_veh2.6 routing_veh2.6" vType="veh_passenger" speedFactor="0.94" vaporized=""/>
    <tripinfo id="veh2.3" depart="21.00" departLane="E5_0" departPos="5.10" departSpeed="0.00" departDelay="9.00" arrival="218.00" arrivalLane="-E1_0" arrivalPos="289.60" arrivalSpeed="10.48" duration="197.00" routeLength="594.90" waitingTime="135.00" waitingCount="1" stopTime="0.00" timeLoss="145.19" rerouteNo="0" devices="tripinfo_veh2.3 routing_veh2.3" vType="veh_passenger" speedFactor="0.83" vaporized=""/>
    <tripinfo id="veh2.8" depart="37.00" departLane="E5_0" departPos="5.10" departSpeed="0.00" departDelay="25.00" arrival="219.00" arrivalLane="-E1_1" arrivalPos="289.60" arrivalSpeed="14.39" duration="182.00" routeLength="594.90" waitingTime="127.00" waitingCount="1" stopTime="0.00" timeLoss="141.98" rerouteNo="0" devices="tripinfo_veh2.8 routing_veh2.8" vType="veh_passenger" speedFactor="1.09" vaporized=""/>
    <tripinfo id="veh2.5" depart="28.00" departLane="E5_0" departPos="5.10" departSpeed="0.00" departDelay="16.00" arrival="220.00" arrivalLane="-E1_0" arrivalPos="289.60" arrivalSpeed="11.93" duration="192.00" routeLength="594.90" waitingTime="131.00" waitingCount="1" stopTime="0.00" timeLoss="143.19" rerouteNo="0" devices="tripinfo_veh2.5 routing_veh2.5" vType="veh_passenger" speedFactor="0.89" vaporized=""/>
    <tripinfo id="veh2.10" depart="43.00" departLane="E5_0" departPos="5.10" departSpeed="0.00" departDelay="31.00" arrival="220.00" arrivalLane="-E1_1" arrivalPos="289.60" arrivalSpeed="13.74" duration="177.00" routeLength="594.90" waitingTime="122.00" waitingCount="1" stopTime="0.00" timeLoss="136.05" rerouteNo="0" devices="tripinfo_veh2.10 routing_veh2.10" vType="veh_passenger" speedFactor="1.05" vaporized=""/>
    <tripinfo id="veh2.7" depart="34.00" departLane="E5_0" departPos="5.10" departSpeed="0.00" departDelay="22.00" arrival="222.00" arrivalLane="-E1_0" arrivalPos="289.60" arrivalSpeed="11.80" duration="188.00" routeLength="594.90" waitingTime="125.00" waitingCount="1" stopTime="0.00" timeLoss="137.41" rerouteNo="0" devices="tripinfo_veh2.7 routing_veh2.7" vType="veh_passenger" speedFactor="0.86" vaporized=""/>
    <tripinfo id="veh2.12" depart="49.00" departLane="E5_0" departPos="5.10" departSpeed="0.00" departDelay="37.00" arrival="222.00" arrivalLane="-E1_1" arrivalPos="289.60" arrivalSpeed="13.00" duration="173.00" routeLength="594.90" waitingTime="116.00" waitingCount="1" stopTime="0.00" timeLoss="129.56" rerouteNo="0" devices="tripinfo_veh2.12 routing_veh2.12" vType="veh_passenger" speedFactor="0.99" vaporized=""/>