<?xml version="1.0" encoding="UTF-8"?>

<!-- generated on 2024-05-29 15:23:55 by Eclipse SUMO GUI Version 1.14.1
<configuration xmlns:xsi="http://www.w3.org/2001/XMLSchema-instance" xsi:noNamespaceSchemaLocation="http://sumo.dlr.de/xsd/sumoConfiguration.xsd">

    <input>
        <net-file value="osm.net.xml"/>
        <route-files value="osm.passenger.trips.xml"/>
        <additional-files value="osm.poly.xml"/>
    </input>

    <output>
        <tripinfo-output value="tripinfo.xml"/>
    </output>

    <processing>
        <ignore-route-errors value="true"/>
    </processing>

    <routing>
        <device.rerouting.adaptation-steps value="18"/>
        <device.rerouting.adaptation-interval value="10"/>
    </routing>

    <report>
        <verbose value="true"/>
        <duration-log.statistics value="true"/>
        <no-step-log value="true"/>
    </report>

    <traci_server>
        <remote-port value="57827"/>
    </traci_server>

    <gui_only>
        <gui-settings-file value="osm.view.xml"/>
    </gui_only>

</configuration>
-->

<tripinfos xmlns:xsi="http://www.w3.org/2001/XMLSchema-instance" xsi:noNamespaceSchemaLocation="http://sumo.dlr.de/xsd/tripinfo_file.xsd">
    <tripinfo id="veh0" depart="0.00" departLane="-E4_0" departPos="5.10" departSpeed="0.00" departDelay="0.00" arrival="48.00" arrivalLane="-E1_0" arrivalPos="289.60" arrivalSpeed="14.15" duration="48.00" routeLength="597.32" waitingTime="0.00" waitingCount="0" stopTime="0.00" timeLoss="6.41" rerouteNo="0" devices="tripinfo_veh0 routing_veh0" vType="veh_passenger" speedFactor="1.06" vaporized=""/>
    <tripinfo id="veh1" depart="6.00" departLane="E1_0" departPos="5.10" departSpeed="0.00" departDelay="0.00" arrival="73.00" arrivalLane="E3_0" arrivalPos="289.60" arrivalSpeed="12.40" duration="67.00" routeLength="592.43" waitingTime="11.00" waitingCount="1" stopTime="0.00" timeLoss="20.80" rerouteNo="0" devices="tripinfo_veh1 routing_veh1" vType="veh_passenger" speedFactor="0.94" vaporized=""/>
    <tripinfo id="veh5" depart="30.00" departLane="E1_0" departPos="5.10" departSpeed="0.00" departDelay="0.00" arrival="90.00" arrivalLane="E3_0" arrivalPos="289.60" arrivalSpeed="11.51" duration="60.00" routeLength="592.43" waitingTime="0.00" waitingCount="0" stopTime="0.00" timeLoss="6.90" rerouteNo="0" devices="tripinfo_veh5 routing_veh5" vType="veh_passenger" speedFactor="0.83" vaporized=""/>
    <tripinfo id="veh4" depart="24.00" departLane="-E3_0" departPos="5.10" departSpeed="0.00" departDelay="0.00" arrival="111.00" arrivalLane="-E1_0" arrivalPos="289.60" arrivalSpeed="14.30" duration="87.00" routeLength="583.13" waitingTime="35.00" waitingCount="1" stopTime="0.00" timeLoss="45.07" rerouteNo="0" devices="tripinfo_veh4 routing_veh4" vType="veh_passenger" speedFactor="1.03" vaporized=""/>
    <tripinfo id="veh9" depart="54.00" departLane="-E3_0" departPos="5.10" departSpeed="0.00" departDelay="0.00" arrival="117.00" arrivalLane="-E1_0" arrivalPos="289.60" arrivalSpeed="11.80" duration="63.00" routeLength="583.13" waitingTime="3.00" waitingCount="1" stopTime="0.00" timeLoss="13.05" rerouteNo="0" devices="tripinfo_veh9 routing_veh9" vType="veh_passenger" speedFactor="0.86" vaporized=""/>
    <tripinfo id="veh2" depart="12.00" departLane="E5_0" departPos="5.10" departSpeed="0.00" departDelay="0.00" arrival="151.00" arrivalLane="-E1_0" arrivalPos="289.60" arrivalSpeed="12.75" duration="139.00" routeLength="594.90" waitingTime="86.00" waitingCount="1" stopTime="0.00" timeLoss="96.41" rerouteNo="0" devices="tripinfo_veh2 routing_veh2" vType="veh_passenger" speedFactor="1.01" vaporized=""/>
    <tripinfo id="veh6" depart="36.00" departLane="E5_0" departPos="5.10" departSpeed="0.00" departDelay="0.00" arrival="151.00" arrivalLane="-E1_1" arrivalPos="289.60" arrivalSpeed="13.63" duration="115.00" routeLength="594.90" waitingTime="64.00" waitingCount="1" stopTime="0.00" timeLoss="73.54" rerouteNo="0" devices="tripinfo_veh6 routing_veh6" vType="veh_passenger" speedFactor="1.05" vaporized=""/>
    <tripinfo id="veh10" depart="60.00" departLane="E5_0" departPos="5.10" departSpeed="0.00" departDelay="0.00" arrival="154.00" arrivalLane="E3_1" arrivalPos="289.60" arrivalSpeed="14.34" duration="94.00" routeLength="583.13" waitingTime="41.00" waitingCount="1" stopTime="0.00" timeLoss="55.05" rerouteNo="0" devices="tripinfo_veh10 routing_veh10" vType="veh_passenger" speedFactor="1.09" vaporized=""/>
    <tripinfo id="veh7" depart="42.00" departLane="E5_0" departPos="5.10" departSpeed="0.00" departDelay="0.00" arrival="157.00" arrivalLane="E3_0" arrivalPos="289.60" arrivalSpeed="11.93" duration="115.00" routeLength="583.13" waitingTime="55.00" waitingCount="1" stopTime="0.00" timeLoss="65.88" rerouteNo="0" devices="tripinfo_veh7 routing_veh7" vType="veh_passenger" speedFactor="0.89" vaporized=""/>
    <tripinfo id="veh11" depart="66.00" departLane="E5_0" departPos="5.10" departSpeed="0.00" departDelay="0.00" arrival="159.00" arrivalLane="E3_0" arrivalPos="289.60" arrivalSpeed="13.22" duration="93.00" routeLength="583.13" waitingTime="38.00" waitingCount="1" stopTime="0.00" timeLoss="50.19" rerouteNo="0" devices="tripinfo_veh11 routing_veh11" vType="veh_passenger" speedFactor="1.03" vaporized=""/>
    <tripinfo id="veh14" depart="84.00" departLane="E5_0" departPos="5.10" departSpeed="0.00" departDelay="0.00" arrival="161.00" arrivalLane="E3_0" arrivalPos="289.60" arrivalSpeed="13.27" duration="77.00" routeLength="583.13" waitingTime="21.00" waitingCount="1" stopTime="0.00" timeLoss="34.01" rerouteNo="0" devices="tripinfo_veh14 routing_veh14" vType="veh_passenger" speedFactor="0.99" vaporized=""/>
    <tripinfo id="veh15" depart="90.00" departLane="E5_0" departPos="5.10" departSpeed="0.00" departDelay="0.00" arrival="166.00" arrivalLane="E3_0" arrivalPos="289.60" arrivalSpeed="12.62" duration="76.00" routeLength="583.13" waitingTime="16.00" waitingCount="1" stopTime="0.00" timeLoss="29.25" rerouteNo="0" devices="tripinfo_veh15 routing_veh15" vType="veh_passenger" speedFactor="0.93" vaporized=""/>
    <tripinfo id="veh3" depart="18.00" departLane="-E4_0" departPos="5.10" departSpeed="0.00" departDelay="0.00" arrival="190.00" arrivalLane="-E1_0" arrivalPos="289.60" arrivalSpeed="14.43" duration="172.00" routeLength="597.32" waitingTime="122.00" waitingCount="1" stopTime="0.00" timeLoss="131.76" rerouteNo="0" devices="tripinfo_veh3 routing_veh3" vType="veh_passenger" speedFactor="1.08" vaporized=""/>
    <tripinfo id="veh13" depart="78.00" departLane="-E4_0" departPos="5.10" departSpeed="0.00" departDelay="0.00" arrival="192.00" arrivalLane="E3_0" arrivalPos="289.60" arrivalSpeed="15.22" duration="114.00" routeLength="594.90" waitingTime="62.00" waitingCount="1" stopTime="0.00" timeLoss="75.03" rerouteNo="0" devices="tripinfo_veh13 routing_veh13" vType="veh_passenger" speedFactor="1.12" vaporized=""/>
    <tripinfo id="veh8" depart="48.00" departLane="-E4_0" departPos="5.10" departSpeed="0.00" departDelay="0.00" arrival="193.00" arrivalLane="-E1_1" arrivalPos="289.60" arrivalSpeed="11.97" duration="145.00" routeLength="592.43" waitingTime="89.00" waitingCount="1" stopTime="0.00" timeLoss="98.47" rerouteNo="0" devices="tripinfo_veh8 routing_veh8" vType="veh_passenger" speedFactor="0.94" vaporized=""/>
    <tripinfo id="veh20" depart="120.00" departLane="-E4_0" departPos="5.10" departSpeed="0.00" departDelay="0.00" arrival="195.00" arrivalLane="-E1_1" arrivalPos="289.60" arrivalSpeed="13.24" duration="75.00" routeLength="592.43" waitingTime="21.00" waitingCount="1" stopTime="0.00" timeLoss="31.79" rerouteNo="0" devices="tripinfo_veh20 routing_veh20" vType="veh_passenger" speedFactor="1.02" vaporized=""/>
    <tripinfo id="veh27" depart="162.00" departLane="-E4_0" departPos="5.10" departSpeed="0.00" departDelay="0.00" arrival="214.00" arrivalLane="-E5_0" arrivalPos="289.60" arrivalSpeed="12.32" duration="52.00" routeLength="583.13" waitingTime="0.00" waitingCount="0" stopTime="0.00" timeLoss="6.39" rerouteNo="0" devices="tripinfo_veh27 routing_veh27" vType="veh_passenger" speedFactor="0.95" vaporized=""/>
    <tripinfo id="veh19" depart="114.00" departLane="E1_0" departPos="5.10" departSpeed="0.00" departDelay="0.00" arrival="229.00" arrivalLane="-E5_1" arrivalPos="289.60" arrivalSpeed="15.71" duration="115.00" routeLength="594.90" waitingTime="68.00" waitingCount="1" stopTime="0.00" timeLoss="77.90" rerouteNo="0" devices="tripinfo_veh19 routing_veh19" vType="veh_passenger" speedFactor="1.16" vaporized=""/>
    <tripinfo id="veh12" depart="72.00" departLane="E1_0" departPos="5.10" departSpeed="0.00" departDelay="0.00" arrival="230.00" arrivalLane="E4_0" arrivalPos="289.60" arrivalSpeed="13.29" duration="158.00" routeLength="583.13" waitingTime="106.00" waitingCount="1" stopTime="0.00" timeLoss="117.25" rerouteNo="0" devices="tripinfo_veh12 routing_veh12" vType="veh_passenger" speedFactor="1.05" vaporized=""/>
    <tripinfo id="veh31" depart="186.00" departLane="E1_0" departPos="5.10" departSpeed="0.00" departDelay="0.00" arrival="233.00" arrivalLane="-E5_1" arrivalPos="289.60" arrivalSpeed="15.71" duration="47.00" routeLength="594.90" waitingTime="0.00" waitingCount="0" stopTime="0.00" timeLoss="9.59" rerouteNo="0" devices="tripinfo_veh31 routing_veh31" vType="veh_passenger" speedFactor="1.15" vaporized=""/>
    <tripinfo id="veh21" depart="126.00" departLane="E1_0" departPos="5.10" departSpeed="0.00" departDelay="0.00" arrival="234.00" arrivalLane="E3_1" arrivalPos="289.60" arrivalSpeed="13.71" duration="108.00" routeLength="592.43" waitingTime="52.00" waitingCount="1" stopTime="0.00" timeLoss="64.48" rerouteNo="0" devices="tripinfo_veh21 routing_veh21" vType="veh_passenger" speedFactor="1.01" vaporized=""/>
    <tripinfo id="veh29" depart="174.00" departLane="E1_0" departPos="5.10" departSpeed="0.00" departDelay="0.00" arrival="235.00" arrivalLane="-E5_0" arrivalPos="289.60" arrivalSpeed="12.86" duration="61.00" routeLength="594.90" waitingTime="3.00" waitingCount="1" stopTime="0.00" timeLoss="14.87" rerouteNo="0" devices="tripinfo_veh29 routing_veh29" vType="veh_passenger" speedFactor="0.93" vaporized=""/>
    <tripinfo id="veh24" depart="144.00" departLane="E1_0" departPos="5.10" departSpeed="0.00" departDelay="0.00" arrival="241.00" arrivalLane="E3_0" arrivalPos="289.60" arrivalSpeed="10.23" duration="97.00" routeLength="592.43" waitingTime="33.00" waitingCount="1" stopTime="0.00" timeLoss="44.57" rerouteNo="0" devices="tripinfo_veh24 routing_veh24" vType="veh_passenger" speedFactor="0.83" vaporized=""/>
    <tripinfo id="veh32" depart="192.00" departLane="E1_0" departPos="5.10" departSpeed="0.00" departDelay="0.00" arrival="242.00" arrivalLane="E4_0" arrivalPos="289.60" arrivalSpeed="12.94" duration="50.00" routeLength="583.13" waitingTime="0.00" waitingCount="0" stopTime="0.00" timeLoss="7.03" rerouteNo="0" devices="tripinfo_veh32 routing_veh32" vType="veh_passenger" speedFactor="1.01" vaporized=""/>
    <tripinfo id="veh18" depart="108.00" departLane="-E3_0" departPos="5.10" departSpeed="0.00" departDelay="0.00" arrival="273.00" arrivalLane="-E5_0" arrivalPos="289.60" arrivalSpeed="12.90" duration="165.00" routeLength="592.43" waitingTime="108.00" waitingCount="1" stopTime="0.00" timeLoss="118.26" rerouteNo="0" devices="tripinfo_veh18 routing_veh18" vType="veh_passenger" speedFactor="0.94" vaporized=""/>
    <tripinfo id="veh28" depart="168.00" departLane="-E3_0" departPos="5.10" departSpeed="0.00" departDelay="0.00" arrival="273.00" arrivalLane="E4_1" arrivalPos="289.60" arrivalSpeed="15.46" duration="105.00" routeLength="594.90" waitingTime="54.00" waitingCount="1" stopTime="0.00" timeLoss="67.12" rerouteNo="0" devices="tripinfo_veh28 routing_veh28" vType="veh_passenger" speedFactor="1.13" vaporized=""/>
    <tripinfo id="veh17" depart="102.00" departLane="-E3_0" departPos="5.10" departSpeed="0.00" departDelay="0.00" arrival="275.00" arrivalLane="-E1_0" arrivalPos="289.60" arrivalSpeed="12.04" duration="173.00" routeLength="583.13" waitingTime="116.00" waitingCount="1" stopTime="0.00" timeLoss="127.16" rerouteNo="0" devices="tripinfo_veh17 routing_veh17" vType="veh_passenger" speedFactor="0.94" vaporized=""/>
    <tripinfo id="veh22" depart="132.00" departLane="-E3_0" departPos="5.10" departSpeed="0.00" departDelay="0.00" arrival="275.00" arrivalLane="-E5_1" arrivalPos="289.60" arrivalSpeed="13.27" duration="143.00" routeLength="592.43" waitingTime="87.00" waitingCount="1" stopTime="0.00" timeLoss="97.49" rerouteNo="0" devices="tripinfo_veh22 routing_veh22" vType="veh_passenger" speedFactor="0.97" vaporized=""/>
    <tripinfo id="veh16" depart="96.00" departLane="-E3_0" departPos="5.10" departSpeed="0.00" departDelay="0.00" arrival="276.00" arrivalLane="-E5_0" arrivalPos="289.60" arrivalSpeed="12.13" duration="180.00" routeLength="597.32" waitingTime="120.00" waitingCount="1" stopTime="0.00" timeLoss="129.55" rerouteNo="0" devices="tripinfo_veh16 routing_veh16" vType="veh_passenger" speedFactor="0.88" vaporized=""/>
    <tripinfo id="veh35" depart="210.00" departLane="-E3_0" departPos="5.10" departSpeed="0.00" departDelay="0.00" arrival="278.00" arrivalLane="-E1_1" arrivalPos="289.60" arrivalSpeed="13.90" duration="68.00" routeLength="583.13" waitingTime="13.00" waitingCount="1" stopTime="0.00" timeLoss="26.37" rerouteNo="0" devices="tripinfo_veh35 routing_veh35" vType="veh_passenger" speedFactor="1.02" vaporized=""/>
    <tripinfo id="veh26" depart="156.00" departLane="-E3_0" departPos="5.10" departSpeed="0.00" departDelay="0.00" arrival="279.00" arrivalLane="-E1_0" arrivalPos="289.60" arrivalSpeed="11.53" duration="123.00" routeLength="583.13" waitingTime="63.00" waitingCount="1" stopTime="0.00" timeLoss="75.65" rerouteNo="0" devices="tripinfo_veh26 routing_veh26" vType="veh_passenger" speedFactor="0.92" vaporized=""/>
    <tripinfo id="veh36" depart="216.00" departLane="-E3_0" departPos="5.10" departSpeed="0.00" departDelay="0.00" arrival="279.00" arrivalLane="-E5_1" arrivalPos="289.60" arrivalSpeed="13.35" duration="63.00" routeLength="592.43" waitingTime="6.00" waitingCount="1" stopTime="0.00" timeLoss="18.51" rerouteNo="0" devices="tripinfo_veh36 routing_veh36" vType="veh_passenger" speedFactor="0.97" vaporized=""/>
    <tripinfo id="veh41" depart="246.00" departLane="-E3_0" departPos="5.10" departSpeed="0.00" departDelay="0.00" arrival="299.00" arrivalLane="-E5_0" arrivalPos="289.60" arrivalSpeed="12.49" duration="53.00" routeLength="597.32" waitingTime="0.00" waitingCount="0" stopTime="0.00" timeLoss="6.77" rerouteNo="0" devices="tripinfo_veh41 routing_veh41" vType="veh_passenger" speedFactor="0.96" vaporized=""/>
    <tripinfo id="veh23" depart="138.00" departLane="E5_0" departPos="5.10" departSpeed="0.00" departDelay="0.00" arrival="314.00" arrivalLane="E3_0" arrivalPos="289.60" arrivalSpeed="11.08" duration="176.00" routeLength="583.13" waitingTime="116.00" waitingCount="1" stopTime="0.00" timeLoss="127.64" rerouteNo="0" devices="tripinfo_veh23 routing_veh23" vType="veh_passenger" speedFactor="0.89" vaporized=""/>
    <tripinfo id="veh37" depart="222.00" departLane="E5_0" departPos="5.10" departSpeed="0.00" departDelay="0.00" arrival="314.00" arrivalLane="E3_1" arrivalPos="289.60" arrivalSpeed="15.61" duration="92.00" routeLength="583.13" waitingTime="43.00" waitingCount="1" stopTime="0.00" timeLoss="54.69" rerouteNo="0" devices="tripinfo_veh37 routing_veh37" vType="veh_passenger" speedFactor="1.18" vaporized=""/>
    <tripinfo id="veh34" depart="204.00" departLane="E5_0" departPos="5.10" departSpeed="0.00" departDelay="0.00" arrival="315.00" arrivalLane="E3_1" arrivalPos="289.60" arrivalSpeed="13.70" duration="111.00" routeLength="583.13" waitingTime="57.00" waitingCount="1" stopTime="0.00" timeLoss="67.85" rerouteNo="0" devices="tripinfo_veh34 routing_veh34" vType="veh_passenger" speedFactor="0.99" vaporized=""/>
    <tripinfo id="veh38" depart="228.00" departLane="E5_0" departPos="5.10" departSpeed="0.00" departDelay="0.00" arrival="315.00" arrivalLane="E4_1" arrivalPos="289.60" arrivalSpeed="14.93" duration="87.00" routeLength="592.43" waitingTime="33.00" waitingCount="1" stopTime="0.00" timeLoss="46.99" rerouteNo="0" devices="tripinfo_veh38 routing_veh38" vType="veh_passenger" speedFactor="1.10" vaporized=""/>
    <tripinfo id="veh25" depart="150.00" departLane="E5_0" departPos="5.10" departSpeed="0.00" departDelay="0.00" arrival="316.00" arrivalLane="E4_0" arrivalPos="289.60" arrivalSpeed="12.00" duration="166.00" routeLength="592.43" waitingTime="105.00" waitingCount="1" stopTime="0.00" timeLoss="115.70" rerouteNo="0" devices="tripinfo_veh25 routing_veh25" vType="veh_passenger" speedFactor="0.87" vaporized=""/>
    <tripinfo id="veh42" depart="252.00" departLane="E5_0" departPos="5.10" departSpeed="0.00" departDelay="0.00" arrival="317.00" arrivalLane="E4_1" arrivalPos="289.60" arrivalSpeed="15.12" duration="65.00" routeLength="592.43" waitingTime="10.00" waitingCount="1" stopTime="0.00" timeLoss="24.40" rerouteNo="0" devices="tripinfo_veh42 routing_veh42" vType="veh_passenger" speedFactor="1.09" vaporized=""/>
    <tripinfo id="veh44" depart="264.00" departLane="E5_0" departPos="5.10" departSpeed="0.00" departDelay="0.00" arrival="318.00" arrivalLane="E3_0" arrivalPos="289.60" arrivalSpeed="14.05" duration="54.00" routeLength="583.13" waitingTime="0.00" waitingCount="0" stopTime="0.00" timeLoss="12.92" rerouteNo="0" devices="tripinfo_veh44 routing_veh44" vType="veh_passenger" speedFactor="1.04" vaporized=""/>
    <tripinfo id="veh45" depart="270.00" departLane="E5_0" departPos="5.10" departSpeed="0.00" departDelay="0.00" arrival="320.00" arrivalLane="E3_0" arrivalPos="289.60" arrivalSpeed="14.89" duration="50.00" routeLength="583.13" waitingTime="0.00" waitingCount="0" stopTime="0.00" timeLoss="9.77" rerouteNo="0" devices="tripinfo_veh45 routing_veh45" vType="veh_passenger" speedFactor="1.09" vaporized=""/>
    <tripinfo id="veh48" depart="288.00" departLane="E5_0" departPos="5.10" departSpeed="0.00" departDelay="0.00" arrival="344.00" arrivalLane="E4_0" arrivalPos="289.60" arrivalSpeed="11.19" duration="56.00" routeLength="597.32" waitingTime="0.00" waitingCount="0" stopTime="0.00" timeLoss="5.70" rerouteNo="0" devices="tripinfo_veh48 routing_veh48" vType="veh_passenger" speedFactor="0.88" vaporized=""/>
    <tripinfo id="veh30" depart="180.00" departLane="-E4_0" departPos="5.10" departSpeed="0.00" departDelay="0.00" arrival="349.00" arrivalLane="-E1_0" arrivalPos="289.60" arrivalSpeed="16.21" duration="169.00" routeLength="597.32" waitingTime="122.00" waitingCount="1" stopTime="0.00" timeLoss="131.77" rerouteNo="0" devices="tripinfo_veh30 routing_veh30" vType="veh_passenger" speedFactor="1.18" vaporized=""/>
    <tripinfo id="veh33" depart="198.00" departLane="-E4_0" departPos="5.10" departSpeed="0.00" departDelay="0.00" arrival="349.00" arrivalLane="-E1_1" arrivalPos="289.60" arrivalSpeed="16.20" duration="151.00" routeLength="592.43" waitingTime="103.00" waitingCount="1" stopTime="0.00" timeLoss="113.56" rerouteNo="0" devices="tripinfo_veh33 routing_veh33" vType="veh_passenger" speedFactor="1.17" vaporized=""/>
    <tripinfo id="veh40" depart="240.00" departLane="-E4_0" departPos="5.10" departSpeed="0.00" departDelay="0.00" arrival="353.00" arrivalLane="E3_0" arrivalPos="289.60" arrivalSpeed="13.48" duration="113.00" routeLength="594.90" waitingTime="61.00" waitingCount="1" stopTime="0.00" timeLoss="70.84" rerouteNo="0" devices="tripinfo_veh40 routing_veh40" vType="veh_passenger" speedFactor="1.03" vaporized=""/>
    <tripinfo id="veh43" depart="258.00" departLane="-E4_0" departPos="5.10" departSpeed="0.00" departDelay="0.00" arrival="354.00" arrivalLane="E3_1" arrivalPos="289.60" arrivalSpeed="14.04" duration="96.00" routeLength="594.90" waitingTime="43.00" waitingCount="1" stopTime="0.00" timeLoss="53.91" rerouteNo="0" devices="tripinfo_veh43 routing_veh43" vType="veh_passenger" speedFactor="1.04" vaporized=""/>
    <tripinfo id="veh49" depart="294.00" departLane="-E4_0" departPos="5.10" departSpeed="0.00" departDelay="0.00" arrival="361.00" arrivalLane="-E1_0" arrivalPos="289.60" arrivalSpeed="10.57" duration="67.00" routeLength="597.32" waitingTime="4.00" waitingCount="1" stopTime="0.00" timeLoss="15.09" rerouteNo="0" devices="tripinfo_veh49 routing_veh49" vType="veh_passenger" speedFactor="0.85" vaporized=""/>
    <tripinfo id="veh54" depart="324.00" departLane="-E4_0" departPos="5.10" departSpeed="0.00" departDelay="0.00" arrival="372.00" arrivalLane="E3_0" arrivalPos="289.60" arrivalSpeed="13.26" duration="48.00" routeLength="594.90" waitingTime="0.00" waitingCount="0" stopTime="0.00" timeLoss="4.64" rerouteNo="0" devices="tripinfo_veh54 routing_veh54" vType="veh_passenger" speedFactor="1.00" vaporized=""/>
    <tripinfo id="veh55" depart="330.00" departLane="-E4_0" departPos="5.10" departSpeed="0.00" departDelay="0.00" arrival="380.00" arrivalLane="-E1_0" arrivalPos="289.60" arrivalSpeed="13.36" duration="50.00" routeLength="597.32" waitingTime="0.00" waitingCount="0" stopTime="0.00" timeLoss="6.08" rerouteNo="0" devices="tripinfo_veh55 routing_veh55" vType="veh_passenger" speedFactor="1.00" vaporized=""/>
    <tripinfo id="veh39" depart="234.00" departLane="E1_0" departPos="5.10" departSpeed="0.00" departDelay="0.00" arrival="394.00" arrivalLane="E3_0" arrivalPos="289.60" arrivalSpeed="12.24" duration="160.00" routeLength="592.43" waitingTime="101.00" waitingCount="1" stopTime="0.00" timeLoss="111.69" rerouteNo="0" devices="tripinfo_veh39 routing_veh39" vType="veh_passenger" speedFactor="0.90" vaporized=""/>
    <tripinfo id="veh56" depart="336.00" departLane="E1_0" departPos="5.10" departSpeed="0.00" departDelay="0.00" arrival="397.00" arrivalLane="E3_0" arrivalPos="289.60" arrivalSpeed="12.08" duration="61.00" routeLength="592.43" waitingTime="2.00" waitingCount="1" stopTime="0.00" timeLoss="12.70" rerouteNo="0" devices="tripinfo_veh56 routing_veh56" vType="veh_passenger" speedFactor="0.90" vaporized=""/>
    <tripinfo id="veh47" depart="282.00" departLane="-E3_0" departPos="5.10" departSpeed="0.00" departDelay="0.00" arrival="434.00" arrivalLane="E4_0" arrivalPos="289.60" arrivalSpeed="11.85" duration="152.00" routeLength="594.90" waitingTime="94.00" waitingCount="1" stopTime="0.00" timeLoss="104.28" rerouteNo="0" devices="tripinfo_veh47 routing_veh47" vType="veh_passenger" speedFactor="0.90" vaporized=""/>
    <tripinfo id="veh52" depart="312.00" departLane="-E3_0" departPos="5.10" departSpeed="0.00" departDelay="0.00" arrival="435.00" arrivalLane="E4_1" arrivalPos="289.60" arrivalSpeed="12.85" duration="123.00" routeLength="594.90" waitingTime="67.00" waitingCount="1" stopTime="0.00" timeLoss="80.63" rerouteNo="0" devices="tripinfo_veh52 routing_veh52" vType="veh_passenger" speedFactor="1.02" vaporized=""/>
    <tripinfo id="veh63" depart="378.00" departLane="-E3_0" departPos="5.10" departSpeed="0.00" departDelay="0.00" arrival="437.00" arrivalLane="E4_1" arrivalPos="289.60" arrivalSpeed="13.32" duration="59.00" routeLength="594.90" waitingTime="3.00" waitingCount="1" stopTime="0.00" timeLoss="15.17" rerouteNo="0" devices="tripinfo_veh63 routing_veh63" vType="veh_passenger" speedFactor="0.99" vaporized=""/>
    <tripinfo id="veh57" depart="342.00" departLane="-E3_0" departPos="5.10" departSpeed="0.00" departDelay="0.00" arrival="438.00" arrivalLane="-E5_1" arrivalPos="289.60" arrivalSpeed="15.10" duration="96.00" routeLength="592.43" waitingTime="42.00" waitingCount="2" stopTime="0.00" timeLoss="57.45" rerouteNo="0" devices="tripinfo_veh57 routing_veh57" vType="veh_passenger" speedFactor="1.14" vaporized=""/>
    <tripinfo id="veh46" depart="276.00" departLane="-E3_0" departPos="5.10" departSpeed="0.00" departDelay="0.00" arrival="439.00" arrivalLane="-E5_0" arrivalPos="289.60" arrivalSpeed="13.70" duration="163.00" routeLength="597.32" waitingTime="107.00" waitingCount="2" stopTime="0.00" timeLoss="119.31" rerouteNo="0" devices="tripinfo_veh46 routing_veh46" vType="veh_passenger" speedFactor="1.00" vaporized=""/>
    <tripinfo id="veh51" depart="306.00" departLane="-E3_0" departPos="5.10" departSpeed="0.00" departDelay="0.00" arrival="439.00" arrivalLane="-E5_1" arrivalPos="289.60" arrivalSpeed="15.40" duration="133.00" routeLength="597.32" waitingTime="79.00" waitingCount="2" stopTime="0.00" timeLoss="95.69" rerouteNo="0" devices="tripinfo_veh51 routing_veh51" vType="veh_passenger" speedFactor="1.17" vaporized=""/>
    <tripinfo id="veh60" depart="360.00" departLane="-E3_0" departPos="5.10" departSpeed="0.00" departDelay="0.00" arrival="441.00" arrivalLane="-E1_0" arrivalPos="289.60" arrivalSpeed="14.17" duration="81.00" routeLength="583.13" waitingTime="24.00" waitingCount="1" stopTime="0.00" timeLoss="41.70" rerouteNo="0" devices="tripinfo_veh60 routing_veh60" vType="veh_passenger" speedFactor="1.08" vaporized=""/>
    <tripinfo id="veh62" depart="372.00" departLane="-E3_0" departPos="5.10" departSpeed="0.00" departDelay="0.00" arrival="446.00" arrivalLane="-E1_0" arrivalPos="289.60" arrivalSpeed="14.06" duration="74.00" routeLength="583.13" waitingTime="13.00" waitingCount="1" stopTime="0.00" timeLoss="31.26" rerouteNo="0" devices="tripinfo_veh62 routing_veh62" vType="veh_passenger" speedFactor="1.02" vaporized=""/>
    <tripinfo id="veh65" depart="390.00" departLane="-E3_0" departPos="5.10" departSpeed="0.00" departDelay="0.00" arrival="452.00" arrivalLane="-E1_0" arrivalPos="289.60" arrivalSpeed="11.54" duration="62.00" routeLength="583.13" waitingTime="0.00" waitingCount="0" stopTime="0.00" timeLoss="12.84" rerouteNo="0" devices="tripinfo_veh65 routing_veh65" vType="veh_passenger" speedFactor="0.88" vaporized=""/>
    <tripinfo id="veh68" depart="408.00" departLane="-E3_0" departPos="5.10" departSpeed="0.00" departDelay="0.00" arrival="457.00" arrivalLane="-E5_0" arrivalPos="289.60" arrivalSpeed="13.32" duration="49.00" routeLength="597.32" waitingTime="0.00" waitingCount="0" stopTime="0.00" timeLoss="6.50" rerouteNo="0" devices="tripinfo_veh68 routing_veh68" vType="veh_passenger" speedFactor="1.04" vaporized=""/>
    <tripinfo id="veh53" depart="318.00" departLane="E5_0" departPos="5.10" departSpeed="0.00" departDelay="0.00" arrival="471.00" arrivalLane="-E1_1" arrivalPos="289.60" arrivalSpeed="13.94" duration="153.00" routeLength="594.90" waitingTime="102.00" waitingCount="1" stopTime="0.00" timeLoss="113.10" rerouteNo="0" devices="tripinfo_veh53 routing_veh53" vType="veh_passenger" speedFactor="1.10" vaporized=""/>
    <tripinfo id="veh64" depart="384.00" departLane="E5_0" departPos="5.10" departSpeed="0.00" departDelay="0.00" arrival="476.00" arrivalLane="-E1_0" arrivalPos="289.60" arrivalSpeed="12.35" duration="92.00" routeLength="594.90" waitingTime="35.00" waitingCount="1" stopTime="0.00" timeLoss="45.42" rerouteNo="0" devices="tripinfo_veh64 routing_veh64" vType="veh_passenger" speedFactor="0.94" vaporized=""/>
    <tripinfo id="veh67" depart="402.00" departLane="E5_0" departPos="5.10" departSpeed="0.00" departDelay="0.00" arrival="478.00" arrivalLane="-E1_0" arrivalPos="289.60" arrivalSpeed="11.45" duration="76.00" routeLength="594.90" waitingTime="18.00" waitingCount="1" stopTime="0.00" timeLoss="28.86" rerouteNo="0" devices="tripinfo_veh67 routing_veh67" vType="veh_passenger" speedFactor="0.91" vaporized=""/>
    <tripinfo id="veh71" depart="426.00" departLane="E5_0" departPos="5.10" departSpeed="0.00" departDelay="0.00" arrival="479.00" arrivalLane="-E1_1" arrivalPos="289.60" arrivalSpeed="13.16" duration="53.00" routeLength="594.90" waitingTime="0.00" waitingCount="0" stopTime="0.00" timeLoss="8.84" rerouteNo="0" devices="tripinfo_veh71 routing_veh71" vType="veh_passenger" speedFactor="0.97" vaporized=""/>
    <tripinfo id="veh58" depart="348.00" departLane="E5_0" departPos="5.10" departSpeed="0.00" departDelay="0.00" arrival="483.00" arrivalLane="E3_0" arrivalPos="289.60" arrivalSpeed="14.08" duration="135.00" routeLength="583.13" waitingTime="78.00" waitingCount="3" stopTime="0.00" timeLoss="92.19" rerouteNo="0" devices="tripinfo_veh58 routing_veh58" vType="veh_passenger" speedFactor="1.02" vaporized=""/>
    <tripinfo id="veh50" depart="300.00" departLane="E5_0" departPos="5.10" departSpeed="0.00" departDelay="0.00" arrival="485.00" arrivalLane="E4_0" arrivalPos="289.60" arrivalSpeed="11.24" duration="185.00" routeLength="597.32" waitingTime="122.00" waitingCount="2" stopTime="0.00" timeLoss="133.58" rerouteNo="0" devices="tripinfo_veh50 routing_veh50" vType="veh_passenger" speedFactor="0.85" vaporized=""/>
    <tripinfo id="veh73" depart="438.00" departLane="E5_0" departPos="5.10" departSpeed="0.00" departDelay="0.00" arrival="485.00" arrivalLane="-E1_1" arrivalPos="289.60" arrivalSpeed="14.57" duration="47.00" routeLength="594.90" waitingTime="0.00" waitingCount="0" stopTime="0.00" timeLoss="5.47" rerouteNo="0" devices="tripinfo_veh73 routing_veh73" vType="veh_passenger" speedFactor="1.06" vaporized=""/>
    <tripinfo id="veh66" depart="396.00" departLane="E5_0" departPos="5.10" departSpeed="0.00" departDelay="0.00" arrival="488.00" arrivalLane="E3_0" arrivalPos="289.60" arrivalSpeed="11.91" duration="92.00" routeLength="583.13" waitingTime="29.00" waitingCount="2" stopTime="0.00" timeLoss="44.55" rerouteNo="0" devices="tripinfo_veh66 routing_veh66" vType="veh_passenger" speedFactor="0.91" vaporized=""/>
    <tripinfo id="veh61" depart="366.00" departLane="-E4_0" departPos="5.10" departSpeed="0.00" departDelay="0.00" arrival="510.00" arrivalLane="E3_1" arrivalPos="289.60" arrivalSpeed="14.81" duration="144.00" routeLength="594.90" waitingTime="94.00" waitingCount="1" stopTime="0.00" timeLoss="105.16" rerouteNo="0" devices="tripinfo_veh61 routing_veh61" vType="veh_passenger" speedFactor="1.12" vaporized=""/>